 &FCI NORB=   2,NELEC= 2,MS2=0,
  ORBSYM=1,1,
  ISYM=1,
 &END
 0.0561462919634254    1    1    1    1
 0.0001242922074010997    2    1    2    1
 0.05612889871094368    2    2    1    1
 0.05611160435987885    2    2    2    2
 -1.063390372655936    1    1  0  0
 -0.6147527176739523    2    2  0  0
 0.4810701917454545  0  0  0  0
