 &FCI NORB=  18,NELEC=18,MS2=0,
  ORBSYM=1,1,1,1,1,1,1,1,1,1,1,1,1,1,1,1,1,1,
  ISYM=1,
 &END
 0.2328371374929293    1    1    1    1
 -0.04942922214926889    2    1    1    1
 0.103128823511838    2    1    2    1
 0.1744209619494647    2    2    1    1
 0.05250060113152326    2    2    2    1
 0.2406456511550991    2    2    2    2
 -0.01775584769914922    3    1    1    1
 -0.01094220385696829    3    1    2    1
 0.01278924346040533    3    1    2    2
 0.08013305473098946    3    1    3    1
 -0.0160145031604654    3    2    1    1
 0.03924321819290974    3    2    2    1
 0.02558125374784243    3    2    2    2
 -0.01428844112340662    3    2    3    1
 0.05398463137585843    3    2    3    2
 0.1938500376107858    3    3    1    1
 -0.02540779271109802    3    3    2    1
 0.1568435313155246    3    3    2    2
 -0.01326073458421032    3    3    3    1
 -0.01535343186975115    3    3    3    2
 0.209648837638149    3    3    3    3
 -0.01761323538106489    4    1    1    1
 0.02117592516952341    4    1    2    1
 0.005856220374551187    4    1    2    2
 0.01971430780314724    4    1    3    1
 -0.03549502033208654    4    1    3    2
 0.0004252825496018572    4    1    3    3
 0.05471067331855622    4    1    4    1
 0.03082469064553531    4    2    1    1
 0.003602417003552661    4    2    2    1
 0.006623530700716118    4    2    2    2
 -0.04870619921516037    4    2    3    1
 -0.01966163817264674    4    2    3    2
 0.0004110551651117096    4    2    3    3
 0.01501295743791753    4    2    4    1
 0.07344166316715788    4    2    4    2
 0.03441165322631193    4    3    1    1
 -0.071400683776632    4    3    2    1
 -0.03648832912730298    4    3    2    2
 0.009353970945965092    4    3    3    1
 -0.03600291285576455    4    3    3    2
 0.02691712119457018    4    3    3    3
 -0.002755379101328061    4    3    4    1
 0.004295446426145322    4    3    4    2
 0.08064718285308643    4    3    4    3
 0.1670778347926129    4    4    1    1
 0.0278309707247611    4    4    2    1
 0.1925673399948195    4    4    2    2
 -0.007588944622476389    4    4    3    1
 0.01084093728140441    4    4    3    2
 0.1706570238914182    4    4    3    3
 0.003951734187421836    4    4    4    1
 0.005588306713776191    4    4    4    2
 -0.02764862667506975    4    4    4    3
 0.2023688044632191    4    4    4    4
 -0.02943402234151781    5    1    1    1
 0.01313515592535553    5    1    2    1
 -0.02906303783801106    5    1    2    2
 -0.01381673950756767    5    1    3    1
 -0.0012165989235613    5    1    3    2
 0.02207230682672173    5    1    3    3
 0.01072662547936085    5    1    4    1
 -0.01913748988967584    5    1    4    2
 0.0004876837937407393    5    1    4    3
 0.001519218740879101    5    1    4    4
 0.05426999810044309    5    1    5    1
 0.01429346332187962    5    2    1    1
 -0.0351622358045415    5    2    2    1
 -0.02147474884854314    5    2    2    2
 -0.002974183587052627    5    2    3    1
 0.004241141468888265    5    2    3    2
 0.001432989328551413    5    2    3    3
 -0.0288185114795121    5    2    4    1
 -0.01495361882406361    5    2    4    2
 -0.006205548267686969    5    2    4    3
 -0.001247156660396233    5    2    4    4
 -0.008215708632394306    5    2    5    1
 0.0450390719809045    5    2    5    2
 -0.02688243792586556    5    3    1    1
 -0.004966990612724792    5    3    2    1
 -0.00262152646678647    5    3    2    2
 0.05331700179679492    5    3    3    1
 -0.003506837678326778    5    3    3    2
 -0.01900168043081362    5    3    3    3
 0.008346901459913651    5    3    4    1
 -0.0367006773943846    5    3    4    2
 0.009687865392057581    5    3    4    3
 0.006384539294049465    5    3    4    4
 -0.003340763789658578    5    3    5    1
 -0.00441898649469278    5    3    5    2
 0.0666175598956677    5    3    5    3
 0.02357883494141219    5    4    1    1
 -0.0512380739433083    5    4    2    1
 -0.02914960258220919    5    4    2    2
 0.008762975405580733    5    4    3    1
 -0.03752255148457414    5    4    3    2
 0.01760128880816317    5    4    3    3
 0.009822198195780965    5    4    4    1
 0.008702830816509795    5    4    4    2
 0.04918982469634927    5    4    4    3
 -0.01970323177329602    5    4    4    4
 -0.001001504507200027    5    4    5    1
 0.001242361603139634    5    4    5    2
 0.006463959155809267    5    4    5    3
 0.05728460796790921    5    4    5    4
 0.1882813762497464    5    5    1    1
 -0.01785807355505002    5    5    2    1
 0.1636500873833316    5    5    2    2
 -0.009333096212486031    5    5    3    1
 -0.009811480282395998    5    5    3    2
 0.1846461521948682    5    5    3    3
 -0.001752129580530557    5    5    4    1
 0.00897811825281501    5    5    4    2
 0.01487504615520074    5    5    4    3
 0.1659209779252517    5    5    4    4
 0.000279248519752377    5    5    5    1
 0.003134518488889663    5    5    5    2
 -0.01231675536760053    5    5    5    3
 0.01453309252669538    5    5    5    4
 0.1955100217620528    5    5    5    5
 0.005259854751704351    6    1    1    1
 -0.01417677998568216    6    1    2    1
 -0.005399544229066817    6    1    2    2
 0.01450685849297897    6    1    3    1
 -0.02174466846199666    6    1    3    2
 -0.004655140122800896    6    1    3    3
 0.01425951532147993    6    1    4    1
 0.002759191158854557    6    1    4    2
 -0.01629005277211674    6    1    4    3
 0.003159005315334587    6    1    4    4
 -0.01253314227182798    6    1    5    1
 0.02368704038820175    6    1    5    2
 -0.001882720556191869    6    1    5    3
 0.002906194699775282    6    1    5    4
 0.001022769844700815    6    1    5    5
 0.04072206365638006    6    1    6    1
 -0.01435555844762221    6    2    1    1
 -0.006658426305674766    6    2    2    1
 -0.03796729311754894    6    2    2    2
 -0.02389414323459458    6    2    3    1
 -0.008195909208977288    6    2    3    2
 0.007978410908576773    6    2    3    3
 0.001753014083331832    6    2    4    1
 0.00303021521980884    6    2    4    2
 -0.003581161770609062    6    2    4    3
 0.01352773931743498    6    2    4    4
 0.03019803814332108    6    2    5    1
 0.01360690500069066    6    2    5    2
 0.005902553020365182    6    2    5    3
 0.0005969603481926091    6    2    5    4
 -0.00104860801043977    6    2    5    5
 0.006354685904671363    6    2    6    1
 0.04856236911688966    6    2    6    2
 0.02074418515966461    6    3    1    1
 -0.0313427348710492    6    3    2    1
 -0.01174765288745867    6    3    2    2
 -0.009468810603981392    6    3    3    1
 0.01319225438899573    6    3    3    2
 0.006339545511668577    6    3    3    3
 -0.03536996291323737    6    3    4    1
 -0.009578009242739261    6    3    4    2
 0.0117148004101208    6    3    4    3
 -0.004209408609948828    6    3    4    4
 -0.008326896983653095    6    3    5    1
 0.02537602654199209    6    3    5    2
 -0.009734297144715307    6    3    5    3
 -0.01816195502072859    6    3    5    4
 0.000272092367384625    6    3    5    5
 -0.0004871647156570671    6    3    6    1
 0.002177437896504428    6    3    6    2
 0.04862352515773924    6    3    6    3
 0.03237138264115314    6    4    1    1
 0.002487332590541863    6    4    2    1
 0.009463975228735412    6    4    2    2
 -0.04370101367251623    6    4    3    1
 -0.01010653570689033    6    4    3    2
 0.02041234394818633    6    4    3    3
 0.005624230972294503    6    4    4    1
 0.04633550497875383    6    4    4    2
 -0.0004456674566656891    6    4    4    3
 0.008374588095224129    6    4    4    4
 -0.002029722700204637    6    4    5    1
 -0.00479603772173574    6    4    5    2
 -0.04462651599181452    6    4    5    3
 0.01001170078945926    6    4    5    4
 -0.0007788855567180284    6    4    5    5
 0.001681489850442598    6    4    6    1
 0.001300679435462068    6    4    6    2
 -0.007352081630927125    6    4    6    3
 0.06155507072743287    6    4    6    4
 -0.03014638658080791    6    5    1    1
 0.06511265889104932    6    5    2    1
 0.03392039549994953    6    5    2    2
 -0.01176819983694405    6    5    3    1
 0.0372830633822969    6    5    3    2
 -0.02070519733224419    6    5    3    3
 -0.001716783117892093    6    5    4    1
 -0.004277490818606488    6    5    4    2
 -0.06104551167614293    6    5    4    3
 0.02175438046605556    6    5    4    4
 0.003295611700486573    6    5    5    1
 -0.004588568189739331    6    5    5    2
 -0.008673973459124391    6    5    5    3
 -0.04970924577198975    6    5    5    4
 -0.0162802940959485    6    5    5    5
 -0.0004985248408694758    6    5    6    1
 -0.0007891138387770709    6    5    6    2
 -0.001147269919411195    6    5    6    3
 -0.003550732877417655    6    5    6    4
 0.07081796499191374    6    5    6    5
 0.1700687139171253    6    6    1    1
 0.01628585471644958    6    6    2    1
 0.1839161171357655    6    6    2    2
 -0.006536448938646636    6    6    3    1
 0.006375246739938763    6    6    3    2
 0.1700414253506362    6    6    3    3
 0.002017574178297996    6    6    4    1
 0.005925520548447422    6    6    4    2
 -0.01493902789026394    6    6    4    3
 0.1817397517342048    6    6    4    4
 -0.001168987511670946    6    6    5    1
 -0.002345998319292762    6    6    5    2
 -0.00504398841443985    6    6    5    3
 -0.009907714491366357    6    6    5    4
 0.1720682725855429    6    6    5    5
 0.001036683082878075    6    6    6    1
 0.0004502616895466202    6    6    6    2
 -0.002904766397273292    6    6    6    3
 0.005468540513521352    6    6    6    4
 0.01463634226335698    6    6    6    5
 0.189526407985727    6    6    6    6
 -0.002515297998602677    7    1    1    1
 0.0009977150536015702    7    1    2    1
 0.004772931709242072    7    1    2    2
 0.01792048017614008    7    1    3    1
 -0.005842341188415884    7    1    3    2
 0.0152441576161428    7    1    3    3
 0.01048347581988779    7    1    4    1
 -0.02169626657780452    7    1    4    2
 -0.002467969668430472    7    1    4    3
 -0.01168196121903955    7    1    4    4
 0.01237833203373963    7    1    5    1
 1.49774867132464e-05    7    1    5    2
 -0.01616703676423775    7    1    5    3
 -0.001894114191679882    7    1    5    4
 0.001650793445378831    7    1    5    5
 0.008939057423748058    7    1    6    1
 -0.01683799423471497    7    1    6    2
 0.0005042842328509733    7    1    6    3
 0.0009728792802023625    7    1    6    4
 0.001462831159649356    7    1    6    5
 -0.001871347429022991    7    1    6    6
 0.0385670090649663    7    1    7    1
 0.0007538064625213653    7    2    1    1
 0.004024278175597274    7    2    2    1
 0.006115207740078671    7    2    2    2
 -0.006520303545476071    7    2    3    1
 0.02468392932737043    7    2    3    2
 0.0003441367728599836    7    2    3    3
 -0.0243904876271958    7    2    4    1
 -0.01355813077090654    7    2    4    2
 0.00227490799616517    7    2    4    3
 -0.00575170741290987    7    2    4    4
 0.0007273527132645825    7    2    5    1
 0.0003178727831800595    7    2    5    2
 -0.0004782721603521104    7    2    5    3
 0.009482053381455276    7    2    5    4
 0.001605367625663884    7    2    5    5
 -0.02217185200890448    7    2    6    1
 -0.01142516441441446    7    2    6    2
 -0.006750795933138509    7    2    6    3
 0.0005209460688609658    7    2    6    4
 -0.00185454990889596    7    2    6    5
 -0.001278472776078572    7    2    6    6
 -0.003483855259381969    7    2    7    1
 0.03544368510584986    7    2    7    2
 0.02519067782606336    7    3    1    1
 -0.009098140143187685    7    3    2    1
 0.03102927453193747    7    3    2    2
 0.02154477140715471    7    3    3    1
 -0.0003417155451566673    7    3    3    2
 -0.002959179172229362    7    3    3    3
 -0.003894620687242466    7    3    4    1
 0.002519513280052585    7    3    4    2
 0.004571770834655803    7    3    4    3
 0.008413081960008057    7    3    4    4
 -0.03280786465297048    7    3    5    1
 0.001268758924695346    7    3    5    2
 0.009243085477421226    7    3    5    3
 -0.001235542769094379    7    3    5    4
 -0.01515299337240225    7    3    5    5
 0.005491920774219906    7    3    6    1
 -0.02318404639041166    7    3    6    2
 0.008893138788910177    7    3    6    3
 0.01447289726783457    7    3    6    4
 -0.001106567018373358    7    3    6    5
 0.0005764730772538565    7    3    6    6
 4.06691525879242e-05    7    3    7    1
 -0.001812291484206959    7    3    7    2
 0.04762379720413044    7    3    7    3
 0.01705010174080663    7    4    1    1
 -0.03777500814442925    7    4    2    1
 -0.02139723265803824    7    4    2    2
 -0.004075113102286833    7    4    3    1
 0.003708788856920018    7    4    3    2
 0.005572087733670758    7    4    3    3
 -0.02880333588436295    7    4    4    1
 -0.01175593991064077    7    4    4    2
 0.01322975486505669    7    4    4    3
 -0.008367553306926078    7    4    4    4
 -0.00583903352416022    7    4    5    1
 0.02955034987112207    7    4    5    2
 -0.004126535248811721    7    4    5    3
 -0.001195475897608521    7    4    5    4
 0.00247181007839348    7    4    5    5
 0.006670243244841182    7    4    6    1
 0.006273427927616928    7    4    6    2
 0.03460642660168139    7    4    6    3
 -0.01014077763177313    7    4    6    4
 0.005841919186095517    7    4    6    5
 -0.00192785413713929    7    4    6    6
 -9.914238841586793e-05    7    4    7    1
 -0.002407351387141488    7    4    7    2
 0.00370185621534351    7    4    7    3
 0.04571437375308272    7    4    7    4
 0.03251484533753162    7    5    1    1
 0.002331484805131331    7    5    2    1
 0.008241260446212895    7    5    2    2
 -0.04904207221993759    7    5    3    1
 0.0008109011597949344    7    5    3    2
 0.02083652212648563    7    5    3    3
 -0.006774751053515203    7    5    4    1
 0.03906307325440061    7    5    4    2
 -0.005237756928945458    7    5    4    3
 0.005491183114732927    7    5    4    4
 -0.0008118016656585629    7    5    5    1
 0.002425292576937661    7    5    5    2
 -0.051422671421834    7    5    5    3
 -0.001101134405807657    7    5    5    4
 0.01354645896794574    7    5    5    5
 0.0001766885907588465    7    5    6    1
 -0.0006204933222506902    7    5    6    2
 0.005252565259549993    7    5    6    3
 0.04298030623736055    7    5    6    4
 0.007342547187204238    7    5    6    5
 -0.004240785053939578    7    5    6    6
 0.003930481557586859    7    5    7    1
 0.0009796595382414474    7    5    7    2
 -0.001524023287509508    7    5    7    3
 0.003615723764241277    7    5    7    4
 0.06014079924674716    7    5    7    5
 0.02652903447557538    7    6    1    1
 -0.05637870608071792    7    6    2    1
 -0.03131508252192758    7    6    2    2
 0.008504178527255556    7    6    3    1
 -0.03826629838182705    7    6    3    2
 0.02090099535527719    7    6    3    3
 0.007889206606812362    7    6    4    1
 0.008422324206946474    7    6    4    2
 0.05704627728309934    7    6    4    3
 -0.02105157318242067    7    6    4    4
 0.000212827269145345    7    6    5    1
 -0.00104187084197933    7    6    5    2
 0.005233346000017672    7    6    5    3
 0.04884585418488413    7    6    5    4
 0.01458611786390504    7    6    5    5
 -0.0008123820885448559    7    6    6    1
 0.0004345516976642952    7    6    6    2
 -0.004343612523057821    7    6    6    3
 0.006121112153775358    7    6    6    4
 -0.05544969270888747    7    6    6    5
 -0.01326073683283595    7    6    6    6
 -5.745253424270477e-05    7    6    7    1
 0.001113820933332123    7    6    7    2
 -1.570175431507347e-05    7    6    7    3
 0.0001952746092235626    7    6    7    4
 -0.002777184915340112    7    6    7    5
 0.06333759864781854    7    6    7    6
 0.1809014748467289    7    7    1    1
 -0.009829492227921665    7    7    2    1
 0.1671064510283663    7    7    2    2
 -0.004863327149369784    7    7    3    1
 -0.005884261033632657    7    7    3    2
 0.183174509230648    7    7    3    3
 -0.0001814364777813727    7    7    4    1
 0.00245209246878578    7    7    4    2
 0.008803827670411261    7    7    4    3
 0.1710518554403413    7    7    4    4
 0.004322432574441925    7    7    5    1
 0.001577719074813955    7    7    5    2
 -0.00686842676581532    7    7    5    3
 0.007932725913535964    7    7    5    4
 0.1795594486296306    7    7    5    5
 -5.487409589064485e-05    7    7    6    1
 0.001576763599892082    7    7    6    2
 0.0007168409642195995    7    7    6    3
 0.005889295065867665    7    7    6    4
 -0.00781809896053064    7    7    6    5
 0.1722745736354221    7    7    6    6
 0.003792178784476976    7    7    7    1
 0.0008244566992258312    7    7    7    2
 -0.002456788240041374    7    7    7    3
 0.001940150490116228    7    7    7    4
 0.007715957756716577    7    7    7    5
 0.009341822460035662    7    7    7    6
 0.1872427898558587    7    7    7    7
 -0.001394029349712687    8    1    1    1
 0.002879731931251265    8    1    2    1
 0.0005717759637514134    8    1    2    2
 0.001147875939529621    8    1    3    1
 -0.006459341168956786    8    1    3    2
 0.01061655904596841    8    1    3    3
 0.010714267889694    8    1    4    1
 0.001985871467688563    8    1    4    2
 0.01605369879679434    8    1    4    3
 -0.001262606749023305    8    1    4    4
 0.01181876459527283    8    1    5    1
 -0.01924465834286811    8    1    5    2
 -0.002066009007471974    8    1    5    3
 -0.01274168591403384    8    1    5    4
 -0.004200617535901775    8    1    5    5
 -0.01239176381056947    8    1    6    1
 -0.001491985685082763    8    1    6    2
 0.01332486235586486    8    1    6    3
 -0.0010434419396154    8    1    6    4
 0.003361373389202779    8    1    6    5
 -0.0005319827437783862    8    1    6    6
 0.008242813951450602    8    1    7    1
 -0.01662643600772494    8    1    7    2
 0.003346845382301479    8    1    7    3
 0.003263932302723449    8    1    7    4
 -0.0001105091777291923    8    1    7    5
 0.001225723251340016    8    1    7    6
 0.000682949861226376    8    1    7    7
 0.03342504583417496    8    1    8    1
 0.002276088009854693    8    2    1    1
 0.0008197043455354923    8    2    2    1
 0.001238667768699874    8    2    2    2
 -0.006651203262466739    8    2    3    1
 -0.003594574826628266    8    2    3    2
 -0.0200897444672565    8    2    3    3
 0.002468773469443319    8    2    4    1
 0.02550907404047497    8    2    4    2
 0.003844255038340091    8    2    4    3
 -0.00461124800970805    8    2    4    4
 -0.02080163771154598    8    2    5    1
 -0.008053091155911149    8    2    5    2
 0.00346621339858615    8    2    5    3
 -0.003752271470918535    8    2    5    4
 0.01009898947149987    8    2    5    5
 -0.001204694733844084    8    2    6    1
 -0.003978284890764935    8    2    6    2
 0.002081023258731031    8    2    6    3
 -0.01433692685262993    8    2    6    4
 0.001480229317349583    8    2    6    5
 0.001485969344449625    8    2    6    6
 -0.02072993966895752    8    2    7    1
 -0.009888515184217602    8    2    7    2
 -0.00939796129465263    8    2    7    3
 0.001613510392253228    8    2    7    4
 -0.001808375163932587    8    2    7    5
 5.386509237498316e-05    8    2    7    6
 -0.004066820750361466    8    2    7    7
 0.002271021157001797    8    2    8    1
 0.03919473535731977    8    2    8    2
 0.00208495238523197    8    3    1    1
 -0.009177913988597025    8    3    2    1
 -0.004357320577873857    8    3    2    2
 0.01450063051590694    8    3    3    1
 -0.0250537366763228    8    3    3    2
 0.0008140904438533284    8    3    3    3
 0.02223294729346438    8    3    4    1
 0.005608924959283784    8    3    4    2
 -0.002128096652717842    8    3    4    3
 0.001491295307513824    8    3    4    4
 -0.003961198284664006    8    3    5    1
 0.005185875230446126    8    3    5    2
 0.002728619546391418    8    3    5    3
 0.005911796743459141    8    3    5    4
 -0.00203344045720692    8    3    5    5
 0.02515857828039723    8    3    6    1
 0.004378218199457682    8    3    6    2
 -0.004440093339886693    8    3    6    3
 0.001300353275247066    8    3    6    4
 0.01128563841909522    8    3    6    5
 0.001619721833496921    8    3    6    6
 0.00779061408442173    8    3    7    1
 -0.0220907124973399    8    3    7    2
 0.007097338686605862    8    3    7    3
 0.01483674877756201    8    3    7    4
 0.001559942473331179    8    3    7    5
 -0.0003662051335170486    8    3    7    6
 0.0007402739209825052    8    3    7    7
 0.004447895558473675    8    3    8    1
 0.001483476897603001    8    3    8    2
 0.0372117415848657    8    3    8    3
 0.01612390554986294    8    4    1    1
 0.003797432443848313    8    4    2    1
 0.03763655740353992    8    4    2    2
 0.02625458474182447    8    4    3    1
 0.006111548063176207    8    4    3    2
 -0.00273446554169173    8    4    3    3
 -0.001238358091872332    8    4    4    1
 -0.00664099730218705    8    4    4    2
 0.0005312611654038505    8    4    4    3
 0.00353386765636136    8    4    4    4
 -0.02657140851612178    8    4    5    1
 -0.007235834819950187    8    4    5    2
 0.007774617577688075    8    4    5    3
 -0.002951035451377727    8    4    5    4
 -0.001498855085301569    8    4    5    5
 -0.001305547426135003    8    4    6    1
 -0.03285558834858464    8    4    6    2
 5.364931862102514e-05    8    4    6    3
 -0.00125311140777228    8    4    6    4
 -0.001279943962154207    8    4    6    5
 -0.009424078094659227    8    4    6    6
 0.008160531081957618    8    4    7    1
 0.005589527880598985    8    4    7    2
 0.0298232102183828    8    4    7    3
 -0.007450000888076846    8    4    7    4
 0.007567217206215004    8    4    7    5
 -8.101977237907643e-05    8    4    7    6
 -0.0006957616997832211    8    4    7    7
 0.0004427609033320446    8    4    8    1
 -0.002840907985368443    8    4    8    2
 -0.002402580358657415    8    4    8    3
 0.04329417082218364    8    4    8    4
 0.02273389241278545    8    5    1    1
 -0.03812962560751325    8    5    2    1
 -0.01556466081019776    8    5    2    2
 -0.005257040639015574    8    5    3    1
 0.006450957742697292    8    5    3    2
 0.0052137870658443    8    5    3    3
 -0.0324775992880107    8    5    4    1
 -0.009276061637658033    8    5    4    2
 0.01112307290819993    8    5    4    3
 -0.005199806901188112    8    5    4    4
 -0.01174421778850746    8    5    5    1
 0.03183259135754872    8    5    5    2
 -0.005967507362991912    8    5    5    3
 -0.002764553808434345    8    5    5    4
 0.003713179911676005    8    5    5    5
 0.00799521338758678    8    5    6    1
 0.003862242233248754    8    5    6    2
 0.03610579073239466    8    5    6    3
 -0.005230223371777289    8    5    6    4
 -0.005727841921946181    8    5    6    5
 -0.002467527159897368    8    5    6    6
 -0.001514385604073419    8    5    7    1
 -0.0010465039682394    8    5    7    2
 0.00764778624448714    8    5    7    3
 0.03426376807245114    8    5    7    4
 0.006001496151910534    8    5    7    5
 -0.01092347549938318    8    5    7    6
 2.615170940781427e-05    8    5    7    7
 -0.002513974283241882    8    5    8    1
 -0.0006090340391986824    8    5    8    2
 0.003057673220868233    8    5    8    3
 -0.001945705760804949    8    5    8    4
 0.04707009570784043    8    5    8    5
 -0.03587330682895816    8    6    1    1
 -0.002375518072609302    8    6    2    1
 -0.01380908344268019    8    6    2    2
 0.04422179089946917    8    6    3    1
 0.006836718628865673    8    6    3    2
 -0.01737868651775121    8    6    3    3
 -0.001769858330013215    8    6    4    1
 -0.04857302380073186    8    6    4    2
 0.0005389517840226862    8    6    4    3
 -0.007844298163338592    8    6    4    4
 0.008718206851254157    8    6    5    1
 0.004823796558837227    8    6    5    2
 0.04477407080474103    8    6    5    3
 -0.005336861103541472    8    6    5    4
 -0.01259381404607924    8    6    5    5
 -0.0006115703196028702    8    6    6    1
 0.003293369807071179    8    6    6    2
 0.002536186150709478    8    6    6    3
 -0.04700709773249786    8    6    6    4
 4.605319820281058e-05    8    6    6    5
 -0.006722951536704944    8    6    6    6
 0.002903001437862226    8    6    7    1
 0.001303549304614296    8    6    7    2
 -0.004811704120512365    8    6    7    3
 0.004889174576842001    8    6    7    4
 -0.04589373242050136    8    6    7    5
 -0.005343960031895256    8    6    7    6
 0.002050869510496301    8    6    7    7
 0.0005344850081117875    8    6    8    1
 -0.003876280831675594    8    6    8    2
 -0.0007468611858140582    8    6    8    3
 -0.001901675555137907    8    6    8    4
 0.003030554586567737    8    6    8    5
 0.05705156428871566    8    6    8    6
 0.02708720367293148    8    7    1    1
 -0.06087438330594216    8    7    2    1
 -0.03257166156434596    8    7    2    2
 0.01506241642234452    8    7    3    1
 -0.04428640325571884    8    7    3    2
 0.02013900600685438    8    7    3    3
 0.01234806460384748    8    7    4    1
 0.008211628856329325    8    7    4    2
 0.05990132434892305    8    7    4    3
 -0.02082759581173982    8    7    4    4
 -0.002120824293028477    8    7    5    1
 -0.0006190201970833823    8    7    5    2
 0.01017663046613066    8    7    5    3
 0.05100327753278117    8    7    5    4
 0.01402481209226257    8    7    5    5
 0.003901961744175479    8    7    6    1
 0.001205782829860577    8    7    6    2
 -0.004657199873719919    8    7    6    3
 0.004356021111395289    8    7    6    4
 -0.05914336102315508    8    7    6    5
 -0.0124189144035041    8    7    6    6
 0.0001026574193900057    8    7    7    1
 -0.004402626883443003    8    7    7    2
 0.002717028865828178    8    7    7    3
 -4.815158243787317e-05    8    7    7    4
 -0.006502096775978932    8    7    7    5
 0.05588433135652175    8    7    7    6
 0.008579148601713662    8    7    7    7
 0.001917168057555811    8    7    8    1
 0.0008316663282633902    8    7    8    2
 0.00541088967300042    8    7    8    3
 -0.0007940352649208783    8    7    8    4
 -0.001003723265837472    8    7    8    5
 -0.002054209523946136    8    7    8    6
 0.06885731746385415    8    7    8    7
 0.1753592637506177    8    8    1    1
 0.007819232502620361    8    8    2    1
 0.1872373769120404    8    8    2    2
 0.005187202097023638    8    8    3    1
 0.004421895264505676    8    8    3    2
 0.1725751014825869    8    8    3    3
 0.0005548727378938458    8    8    4    1
 -0.001617714670491922    8    8    4    2
 -0.006956407875716524    8    8    4    3
 0.1790527410049114    8    8    4    4
 -0.005923377916502469    8    8    5    1
 -0.001866947722073352    8    8    5    2
 0.0006460545661000312    8    8    5    3
 -0.005392236442423559    8    8    5    4
 0.1731653712148375    8    8    5    5
 0.000828079209811132    8    8    6    1
 -0.00759169620006207    8    8    6    2
 -0.0009390078260778892    8    8    6    3
 0.001081902899692222    8    8    6    4
 0.006528922498822718    8    8    6    5
 0.1772402730096546    8    8    6    6
 0.002650712494739279    8    8    7    1
 0.0007894066987822142    8    8    7    2
 0.00816148478559863    8    8    7    3
 -0.002149027107883054    8    8    7    4
 0.001418852313186587    8    8    7    5
 -0.005966826968205451    8    8    7    6
 0.1746814172560807    8    8    7    7
 -9.106932404305711e-05    8    8    8    1
 -0.002014423127418335    8    8    8    2
 0.0008242166175893443    8    8    8    3
 0.009596611955432622    8    8    8    4
 -0.001129439384838158    8    8    8    5
 -0.002205494602749493    8    8    8    6
 -0.006531326121271116    8    8    8    7
 0.1870703100045084    8    8    8    8
 -0.00041699564658203    9    1    1    1
 0.0004197935727300912    9    1    2    1
 0.002175007276701757    9    1    2    2
 0.003706064687250123    9    1    3    1
 -0.0008304247505304304    9    1    3    2
 -0.01126561360144023    9    1    3    3
 0.0009724257082731592    9    1    4    1
 0.003451586796424529    9    1    4    2
 -0.006102092879458434    9    1    4    3
 -0.01607240202128018    9    1    4    4
 -0.01271537301908978    9    1    5    1
 0.002805289102190684    9    1    5    2
 -0.01203449755684842    9    1    5    3
 0.001326319080594949    9    1    5    4
 0.01641824853521527    9    1    5    5
 0.00879795467185341    9    1    6    1
 -0.0169705156880023    9    1    6    2
 -0.003566641896734709    9    1    6    3
 -0.01445813709106688    9    1    6    4
 -0.001413438522281861    9    1    6    5
 -0.0006351732889840361    9    1    6    6
 0.008212601708313902    9    1    7    1
 0.0006026613794382379    9    1    7    2
 -0.0169099270926778    9    1    7    3
 -0.001435482734496429    9    1    7    4
 0.002767988760372808    9    1    7    5
 -0.0005551296272972202    9    1    7    6
 -0.0007984873140284639    9    1    7    7
 -0.01005317810292406    9    1    8    1
 0.0198696886075296    9    1    8    2
 -0.0008004990122715532    9    1    8    3
 0.002019786847289324    9    1    8    4
 0.0002305937361505391    9    1    8    5
 -0.001459183272680568    9    1    8    6
 -0.0007682751041427766    9    1    8    7
 -0.0004865258078092199    9    1    8    8
 0.03483331467914082    9    1    9    1
 0.0001351237707674416    9    2    1    1
 0.001930953621911353    9    2    2    1
 0.001949626127482406    9    2    2    2
 -0.0008652500475075811    9    2    3    1
 -0.0008070594767463422    9    2    3    2
 0.002931365117211423    9    2    3    3
 0.003349237502963328    9    2    4    1
 0.00465231067199715    9    2    4    2
 0.01851753261248277    9    2    4    3