 &FCI NORB=           7 , NELEC=          10 , MS2=           0 ,
 ORBSYM=1,1,1,1,1,1,1,
 ISYM=0,
 /
  0.672146869545289                1           1           1           1
 -2.666984784971518E-002           3           1           1           1
 -0.112485439572543                5           1           1           1
 -0.109756298188291                7           1           1           1
  0.153350108594264                2           1           2           1
  2.555770027471374E-002           6           1           2           1
  0.136890469908193                3           1           3           1
  7.736733909800338E-002           5           1           3           1
  1.421964826833338E-002           7           1           3           1
  9.121675016862879E-002           4           1           4           1
  0.133675641719890                5           1           5           1
  4.253338576210170E-002           7           1           5           1
  7.226125530740389E-002           6           1           6           1
  0.119382614220617                7           1           7           1
  0.637584903399993                2           2           1           1
 -7.615222453424053E-002           6           2           1           1
  2.739461909912189E-003           3           2           2           1
  3.613327811867988E-002           5           2           2           1
 -1.315181541108844E-004           7           2           2           1
  8.827941195761661E-002           6           2           3           1
  4.515706349038219E-002           6           2           5           1
  5.928942679546002E-002           7           2           6           1
  0.763628073289143                3           3           1           1
  0.168538414781497                5           3           1           1
 -8.724190010309794E-002           7           3           1           1
  6.120210477211260E-002           6           3           2           1
 -0.346788907618376                3           3           3           1
 -0.212292649402330                5           3           3           1
  6.867199232474251E-002           7           3           3           1
 -3.406798223018002E-002           4           3           4           1
 -0.283479053219689                5           3           5           1
  0.106226453741457                7           3           5           1
  2.422065081500085E-003           6           3           6           1
  3.713093698882169E-002           7           3           7           1
  0.665753297803924                4           4           1           1
 -0.113373118814545                4           4           3           1
  2.025914734083500E-002           5           4           4           1
 -8.385277941924787E-002           7           4           4           1
  0.785322873048096                5           5           1           1
 -2.188866819031639E-002           7           5           1           1
  5.348419030405359E-004           6           5           2           1
 -0.386219913397455                5           5           3           1
  0.106283847098648                7           5           3           1
 -0.388813955713396                5           5           5           1
  6.365295376787181E-002           7           5           5           1
  1.622921761853218E-002           6           5           6           1
 -8.979013007401081E-003           7           5           7           1
  0.589937643160533                6           6           1           1
  0.127876424408870                7           6           2           1
 -3.919921965854002E-002           6           6           3           1
 -5.714151809548123E-002           6           6           5           1
  4.428518282446806E-002           7           6           6           1
  0.661175627126853                7           7           1           1
 -3.783706873566609E-002           7           7           3           1
 -0.126167407674369                7           7           5           1
 -0.114478702250300                7           7           7           1
 -4.623730524468250E-002           3           1           2           2
 -6.506257133669664E-002           5           1           2           2
 -9.893585355779055E-002           7           1           2           2
  3.236178660625331E-002           6           1           3           2
  4.770456416630982E-003           6           1           5           2
  9.671412757365448E-002           7           1           6           2
  0.669368351955917                2           2           2           2
 -0.113636294628633                6           2           2           2
  3.291707680528319E-002           3           2           3           2
 -1.150701699229997E-002           5           2           3           2
  2.048519574753627E-002           7           2           3           2
  3.295173831808184E-002           4           2           4           2
  2.931106034171550E-002           5           2           5           2
  2.262733220289185E-003           7           2           5           2
  0.148458323286106                6           2           6           2
  5.680420198137265E-002           7           2           7           2
  0.738275584906667                3           3           2           2
  9.379713086600594E-002           5           3           2           2
 -5.215988212530673E-002           7           3           2           2
 -2.060614000991057E-002           6           3           3           2
  2.315155367257557E-002           6           3           5           2
  4.318890081909150E-002           7           3           6           2
  0.662397527676133                4           4           2           2
 -2.292172875336148E-002           6           4           4           2
  0.743206783380055                5           5           2           2
 -3.118530875221012E-002           7           5           2           2
  1.568576138543280E-002           6           5           3           2
 -1.856370493124413E-002           6           5           5           2
  5.191358053132628E-002           7           5           6           2
  0.606706495920613                6           6           2           2
  8.203973072819871E-003           7           6           3           2
  3.135670225743273E-002           7           6           5           2
 -6.589890398345757E-002           6           6           6           2
  2.062133640216918E-002           7           6           7           2
  0.619846495488438                7           7           2           2
 -7.732891410739795E-002           7           7           6           2
 -0.346788907618376                3           1           3           3
 -0.322072762000592                5           1           3           3
 -0.138650616552905                7           1           3           3
 -3.406798223018002E-002           4           1           4           3
 -0.283479053219689                5           1           5           3
  2.548866027382461E-003           7           1           5           3
  2.422065081500085E-003           6           1           6           3
  3.713093698882169E-002           7           1           7           3
 -0.263012085614968                6           2           3           3
 -5.799161602661176E-002           6           2           5           3
 -4.497110612897912E-004           7           2           6           3
   1.67905251556006                3           3           3           3
  0.715646037965450                5           3           3           3
 -0.288624243068567                7           3           3           3
  5.089290907642182E-002           4           3           4           3
  0.746214503416557                5           3           5           3
 -0.236686736279999                7           3           5           3
  4.543217775338613E-002           6           3           6           3
  9.910978446362852E-002           7           3           7           3
  0.917215299063825                4           4           3           3
 -2.559998121987302E-002           5           4           4           3
  2.935529600092733E-002           7           4           4           3
   1.77490116590337                5           5           3           3
 -0.287930834034923                7           5           3           3
  0.870385937410076                5           5           5           3
 -0.207567967452933                7           5           5           3
 -8.234173999492351E-003           6           5           6           3
  6.555458582582771E-002           7           5           7           3
  0.683420859991590                6           6           3           3
  9.630682567975385E-002           6           6           5           3
  5.357167514077139E-002           7           6           6           3
  0.778856671623801                7           7           3           3
  0.196607926015901                7           7           5           3
 -9.844823738154654E-002           7           7           7           3
 -0.102374714535416                5           1           4           4
 -0.180889917615510                7           1           4           4
 -0.186490241929302                6           2           4           4
  0.134250322615108                5           3           4           4
 -8.453876032239384E-002           7           3           4           4
  0.880159089645861                4           4           4           4
  3.788941482402268E-002           5           4           5           4
 -1.885573211809818E-002           7           4           5           4
  2.019900698783423E-002           6           4           6           4
  8.501112584684369E-002           7           4           7           4
  0.929875626836767                5           5           4           4
 -7.228334254148486E-002           7           5           4           4
  0.591465173170838                6           6           4           4
  0.667723445849492                7           7           4           4
 -0.388813955713396                5           1           5           5
 -0.147131622610212                7           1           5           5
  1.622921761853218E-002           6           1           6           5
 -8.979013007401081E-003           7           1           7           5
 -0.275857445131781                6           2           5           5
  1.361805827258877E-002           7           2           6           5
  0.870385937410076                5           3           5           5
 -0.332264699272637                7           3           5           5
 -8.234173999492351E-003           6           3           6           5
  6.555458582582771E-002           7           3           7           5
   1.96956742251227                5           5           5           5
 -0.322945949894745                7           5           5           5
  2.247235284514551E-002           6           5           6           5
  0.104926751173569                7           5           7           5
  0.682902221542055                6           6           5           5
  6.586814332789631E-003           7           6           6           5
  0.810285845051490                7           7           5           5
 -2.431755836893109E-002           7           7           7           5
 -5.195108181135508E-002           7           1           6           6
 -6.589890398345757E-002           6           2           6           6
  2.062133640216918E-002           7           2           7           6
 -3.681725836351172E-002           7           3           6           6
 -2.584029401733341E-002           7           5           6           6
  0.591203153193636                6           6           6           6
  0.128630385281749                7           6           7           6
  0.587519876057544                7           7           6           6
 -0.114478702250300                7           1           7           7
 -9.844823738154654E-002           7           3           7           7
 -2.431755836893109E-002           7           5           7           7
  0.675168379611148                7           7           7           7
  -8.78227701958514                1           1           0           0
  1.754240716858957E-015           2           1           0           0
   5.21869758808662                3           1           0           0
   5.19122670852339                5           1           0           0
  2.236327266752783E-015           6           1           0           0
   1.09399826018482                7           1           0           0
  -6.66019867411521                2           2           0           0
  1.958158289088016E-015           5           2           0           0
   1.61579552967804                6           2           0           0
  1.481252624657240E-014           7           2           0           0
  -18.7290649438881                3           3           0           0
  -11.3225423088954                5           3           0           0
   2.39768512578925                7           3           0           0
  -7.45717011647984                4           4           0           0
 -1.537189807137926E-015           7           4           0           0
  -18.8459346335190                5           5           0           0
   2.35741254202327                7           5           0           0
  -5.30725082127333                6           6           0           0
 -4.711498920990493E-015           7           6           0           0
  -6.33831461460505                7           7           0           0
   9.18953376293490                0           0           0           0
