 &FCI NORB=  10,NELEC=14,MS2=0,
  ORBSYM=1,1,1,1,1,1,1,1,1,1,
  ISYM=1,
 &END
 2.307361653271411    1    1    1    1
 -1.835216368579528e-11    2    1    1    1
 1.824394165287089    2    1    2    1
 2.306866249352071    2    2    1    1
 1.83606443640556e-11    2    2    2    1
 2.30637226329319    2    2    2    2
 -0.191568259642207    3    1    1    1
 -0.1914344644636033    3    1    2    2
 0.0310123696730789    3    1    3    1
 1.034970531387752e-12    3    2    1    1
 -0.198561301133049    3    2    2    1
 -2.960100155493827e-12    3    2    2    2
 0.03074892278564427    3    2    3    2
 0.787859259615773    3    3    1    1
 0.7879437719970914    3    3    2    2
 0.002064320313920843    3    3    3    1
 0.7481650700137004    3    3    3    3
 -2.819122291150792e-12    4    1    1    1
 0.1844731135240649    4    1    2    1
 -0.02601070091470101    4    1    3    2
 0.02869040128629769    4    1    4    1
 0.1914258859379309    4    2    1    1
 0.1913798394512942    4    2    2    2
 -0.02581195275902257    4    2    3    1
 0.01833490655608394    4    2    3    3
 0.02888942280243951    4    2    4    2
 1.724445689903296e-12    4    3    1    1
 -0.1715887598336561    4    3    2    1
 -1.728500544544327e-12    4    3    2    2
 0.008308401137999494    4    3    3    2
 -0.004815902544938421    4    3    4    1
 0.05615324978256084    4    3    4    3
 0.6673390246157861    4    4    1    1
 0.6672766356779763    4    4    2    2
 -0.0125860188865789    4    4    3    1
 0.5121788409920525    4    4    3    3
 0.004888434612867414    4    4    4    2
 0.5456431132216342    4    4    4    4
 0.009771009189241476    5    1    5    1
 0.009265309451313323    5    2    5    2
 0.01664424350688623    5    3    5    1
 0.1051333371957991    5    3    5    3
 -0.01126650930114394    5    4    5    2
 0.05079666261615417    5    4    5    4
 0.6883770842515242    5    5    1    1
 0.6884208493734706    5    5    2    2
 -0.001493542890458792    5    5    3    1
 0.6177533790097149    5    5    3    3
 0.007742652478023168    5    5    4    2
 0.5101683989372533    5    5    4    4
 0.5884264015728594    5    5    5    5
 0.009771009189241479    6    1    6    1
 0.00926530945131333    6    2    6    2
 0.01664424350688624    6    3    6    1
 0.1051333371957991    6    3    6    3
 -0.01126650930114395    6    4    6    2
 0.05079666261615421    6    4    6    4
 0.02402096410958962    6    5    6    5
 0.6883770842515244    6    6    1    1
 0.6884208493734708    6    6    2    2
 -0.001493542890458773    6    6    3    1
 0.6177533790097152    6    6    3    3
 0.007742652478023141    6    6    4    2
 0.5101683989372535    6    6    4    4
 0.5403844733536802    6    6    5    5
 0.58842640157286    6    6    6    6
 -0.08358500836518887    7    1    1    1
 -0.08364443044482889    7    1    2    2
 0.006548635038565304    7    1    3    1
 -0.02556857778902672    7    1    3    3
 -0.01521784979818266    7    1    4    2
 0.004222362731938887    7    1    4    4
 -0.008970596519430085    7    1    5    5
 -0.00897059651943009    7    1    6    6
 0.01427607552982936    7    1    7    1
 -0.06848345252488384    7    2    2    1
 -1.113706011938575e-12    7    2    2    2
 0.007012554899510497    7    2    3    2
 -0.0147814574883195    7    2    4    1
 -0.0007841525530752992    7    2    4    3
 0.01331539873202788    7    2    7    2
 -0.06574113238827514    7    3    1    1
 -0.06579740607292076    7    3    2    2
 -0.007247038443067375    7    3    3    1
 -0.1088749074429587    7    3    3    3
 -0.004793468011805996    7    3    4    2
 0.001053367535846761    7    3    4    4
 -0.04698882006584569    7    3    5    5
 -0.04698882006584571    7    3    6    6
 0.01236157155610536    7    3    7    1
 0.05149722096951516    7    3    7    3
 2.538704685350171e-12    7    4    1    1
 -0.2522641940566669    7    4    2    1
 -2.537722368239686e-12    7    4    2    2
 0.0139257711803897    7    4    3    2
 0.002348528709731474    7    4    4    1
 0.09285945255405337    7    4    4    3
 -0.01489560228243604    7    4    7    2
 0.2238563897185901    7    4    7    4
 0.004863330650768212    7    5    5    1
 0.01388775289130066    7    5    5    3
 0.02806995122412667    7    5    7    5
 0.004863330650768214    7    6    6    1
 0.01388775289130066    7    6    6    3
 0.02806995122412669    7    6    7    6
 0.685696453115251    7    7    1    1
 0.6856339576606373    7    7    2    2
 -0.00899419236970756    7    7    3    1
 0.5426750584676843    7    7    3    3
 0.003716440432384217    7    7    4    2
 0.5573787469019156    7    7    4    4
 0.5179470240704479    7    7    5    5
 0.5179470240704482    7    7    6    6
 0.002701330214808029    7    7    7    1
 -0.01623852005333655    7    7    7    3
 0.5851463356097667    7    7    7    7
 -0.000720254499147445    8    1    5    2
 0.0008570103775321574    8    1    5    4
 0.0112898494192161    8    1    6    2
 -0.0134334712584182    8    1    6    4
 0.01383089062606161    8    1    8    1
 -0.0007572751694761717    8    2    5    1
 -0.001201652113116185    8    2    5    3
 0.01187014123815579    8    2    6    1
 0.01883566354312677    8    2    6    3
 -0.0003964153831999927    8    2    7    5
 0.006213734157976543    8    2    7    6
 0.01451505484931147    8    2    8    2
 -0.000727553905980736    8    3    5    2
 0.002727420279423617    8    3    5    4
 0.01140426620397065    8    3    6    2
 -0.04275178328501548    8    3    6    4
 0.01343783552933046    8    3    8    1
 0.04417685551868303    8    3    8    3
 0.0009937951606677567    8    4    5    1
 0.004717335773696717    8    4    5    3
 -0.01557754617397789    8    4    6    1
 -0.07394332226727911    8    4    6    3
 0.002386677333053785    8    4    7    5
 -0.03741070376419473    8    4    7    6
 -0.01854077963507577    8    4    8    2
 0.08236718235029128    8    4    8    4
 -0.01751210831574986    8    5    2    1
 0.0005646971759100458    8    5    3    2
 -0.0001737264981774103    8    5    4    1
 0.006134639301039473    8    5    4    3
 -0.0002422801803002299    8    5    7    2
 0.01002503230305544    8    5    7    4
 0.01965646376478924    8    5    8    5
 -2.762197687032967e-12    8    6    1    1
 0.2744988974478375    8    6    2    1
 2.761699088637857e-12    8    6    2    2
 -0.008851518582705702    8    6    3    2
 0.002723129125708052    8    6    4    1
 -0.09615927985444292    8    6    4    3
 0.003797694781619373    8    6    7    2
 -0.157140434746668    8    6    7    4
 -0.01070416968076171    8    6    8    5
 0.1867593549383335    8    6    8    6
 -0.0004478089018120703    8    7    5    2
 0.002493383231157601    8    7    5    4
 0.007019317582919866    8    7    6    2
 -0.03908329799742796    8    7    6    4
 0.008623847970382811    8    7    8    1
 0.02500883222639954    8    7    8    3
 0.03823758419691321    8    7    8    7
 0.728127970480463    8    8    1    1
 0.7281576438210755    8    8    2    2
 -0.005956749688240973    8    8    3    1
 0.5964855161686367    8    8    3    3
 0.007748290093237294    8    8    4    2
 0.5361164649092353    8    8    4    4
 0.5417948340661162    8    8    5    5
 -0.002908691050178957    8    8    6    5
 0.5872024367584638    8    8    6    6
 -0.005359788897016418    8    8    7    1
 -0.02925362294318582    8    8    7    3
 0.5408062448052182    8    8    7    7
 0.6050878058226862    8    8    8    8
 0.0112898494192161    9    1    5    2
 -0.0134334712584182    9    1    5    4
 0.0007202544991474447    9    1    6    2
 -0.000857010377532157    9    1    6    4
 0.01383089062606161    9    1    9    1
 0.01187014123815579    9    2    5    1
 0.01883566354312677    9    2    5    3
 0.0007572751694761713    9    2    6    1
 0.001201652113116184    9    2    6    3
 0.006213734157976541    9    2    7    5
 0.0003964153831999924    9    2    7    6
 0.01451505484931147    9    2    9    2
 0.01140426620397065    9    3    5    2
 -0.04275178328501549    9    3    5    4
 0.0007275539059807358    9    3    6    2
 -0.002727420279423616    9    3    6    4
 0.01343783552933046    9    3    9    1
 0.04417685551868304    9    3    9    3
 -0.01557754617397789    9    4    5    1
 -0.07394332226727909    9    4    5    3
 -0.0009937951606677562    9    4    6    1
 -0.004717335773696716    9    4    6    3
 -0.03741070376419474    9    4    7    5
 -0.002386677333053785    9    4    7    6
 -0.01854077963507578    9    4    9    2
 0.08236718235029129    9    4    9    4
 -2.76194760132944e-12    9    5    1    1
 0.2744988974478373    9    5    2    1
 2.761921264584205e-12    9    5    2    2
 -0.008851518582705699    9    5    3    2
 0.002723129125708047    9    5    4    1
 -0.09615927985444292    9    5    4    3
 0.003797694781619366    9    5    7    2
 -0.157140434746668    9    5    7    4
 -0.01070416968076167    9    5    8    5
 0.1488122076040306    9    5    8    6
 0.1867593549383334    9    5    9    5
 0.01751210831574985    9    6    2    1
 -0.0005646971759100448    9    6    3    2
 0.0001737264981774092    9    6    4    1
 -0.006134639301039471    9    6    4    3
 0.0002422801803002304    9    6    7    2
 -0.01002503230305544    9    6    7    4
 0.01829068356951334    9    6    8    5
 0.01070416968076167    9    6    8    6
 0.01070416968076169    9    6    9    5
 0.01965646376478925    9    6    9    6
 0.007019317582919864    9    7    5    2
 -0.03908329799742794    9    7    5    4
 0.0004478089018120701    9    7    6    2
 -0.0024933832311576    9    7    6    4
 0.008623847970382811    9    7    9    1
 0.02500883222639954    9    7    9    3
 0.03823758419691322    9    7    9    7
 -0.002908691050178755    9    8    5    5
 0.02270380134617364    9    8    6    5
 0.002908691050178926    9    8    6    6
 0.02508367351083334    9    8    9    8
 0.7281279704804632    9    9    1    1
 0.7281576438210757    9    9    2    2
 -0.005956749688240995    9    9    3    1
 0.5964855161686368    9    9    3    3
 0.007748290093237332    9    9    4    2
 0.5361164649092355    9    9    4    4
 0.5872024367584636    9    9    5    5
 0.002908691050178735    9    9    6    5
 0.5417948340661166    9    9    6    6
 -0.005359788897016443    9    9    7    1
 -0.02925362294318588    9    9    7    3
 0.5408062448052182    9    9    7    7
 0.5549204588010191    9    9    8    8
 0.6050878058226865    9    9    9    9
 -2.167900426177098e-12   10    1    1    1
 0.1497883265965377   10    1    2    1
 -0.02760748364679471   10    1    3    2
 0.01481169159551292   10    1    4    1
 -0.008130952223901207   10    1    4    3
 0.00504254061824876   10    1    7    2
 -0.02627678531623367   10    1    7    4
 -0.0006320818911169565   10    1    8    5
 0.009907760909193486   10    1    8    6
 0.009907760909193484   10    1    9    5
 0.0006320818911169563   10    1    9    6
 0.03601185191391889   10    1   10    1
 0.1313836028592475   10    2    1    1
 0.13117056892708   10    2    2    2
 -0.02808581895392976   10    2    3    1
 -0.02219428953476795   10    2    3    3
 0.01427784534006449   10    2    4    2
 0.01625157315123447   10    2    4    4
 -0.006467482666090886   10    2    5    5
 -0.00646748266609089   10    2    6    6
 0.006138792500670792   10    2    7    1
 0.01677526912383305   10    2    7    3
 0.01213914919144458   10    2    7    7
 0.0003434998064722322   10    2    8    8
 0.0003434998064722319   10    2    9    9
 0.03712726184929901   10    2   10    2
 2.279471014547606e-12   10    3    1    1
 -0.2265561372571301   10    3    2    1
 -2.279596577967711e-12   10    3    2    2
 0.005032132269961692   10    3    3    2
 -0.01145558736871941   10    3    4    1
 0.05909415198518947   10    3    4    3
 0.01089669326316922   10    3    7    2
 0.0570713907353326   10    3    7    4
 0.006505723022244434   10    3    8    5
 -0.1019759451294053   10    3    8    6
 -0.1019759451294053   10    3    9    5
 -0.006505723022244432   10    3    9    6
 0.005915784002578216   10    3   10    1
 0.1066678895412331   10    3   10    3
 0.04899735956455523   10    4    1    1
 0.04907312998064378   10    4    2    2
 0.002891438124708195   10    4    3    1
 0.07342586842687931   10    4    3    3
 0.007459662695854197   10    4    4    2
 -0.01990286955044093   10    4    4    4
 0.04163111879951462   10    4    5    5
 0.04163111879951464   10    4    6    6
 -0.01221217347212429   10    4    7    1
 -0.02954126951426773   10    4    7    3
 -0.02755027164849089   10    4    7    7
 0.02840692824510991   10    4    8    8
 0.02840692824510992   10    4    9    9
 -0.01372402931087171   10    4   10    2
 0.04784174119855482   10    4   10    4
 -0.00860672115915501   10    5    5    2
 0.02385751675224942   10    5    5    4
 0.0006308749600234579   10    5    8    1
 0.002167323565498914   10    5    8    3
 0.0002862947573127134   10    5    8    7
 -0.009888842498657905   10    5    9    1
 -0.03397237605063849   10    5    9    3
 -0.004487614729789939   10    5    9    7
 0.03537388430732726   10    5   10    5
 -0.008606721159155015   10    6    6    2
 0.02385751675224943   10    6    6    4
 -0.009888842498657907   10    6    8    1
 -0.0339723760506385   10    6    8    3
 -0.004487614729789939   10    6    8    7
 -0.0006308749600234574   10    6    9    1
 -0.002167323565498913   10    6    9    3
 -0.0002862947573127132   10    6    9    7
 0.03537388430732728   10    6   10    6
 -1.942906611987337e-12   10    7    1    1
 0.1929882635569434   10    7    2    1
 1.940659942310052e-12   10    7    2    2
 -0.006850969329926254   10    7    3    2
 0.001699106609475002   10    7    4    1
 -0.05448177245713848   10    7    4    3
 0.003418670239693039   10    7    7    2
 -0.124289669044523   10    7    7    4
 -0.005847500230043986   10    7    8    5
 0.0916584306716195   10    7    8    6
 0.09165843067161951   10    7    9    5
 0.005847500230043984   10    7    9    6
 0.009567400225231455   10    7   10    1
 -0.05879638178582163   10    7   10    3
 0.0915579680850747   10    7   10    7
 0.0007095713506814882   10    8    5    1
 0.003932574529415866   10    8    5    3
 -0.01112239314140521   10    8    6    1
 -0.06164234214364957   10    8    6    3
 -2.254742094618477e-05   10    8    7    5
 0.0003534264452015519   10    8    7    6
 -0.01264071758819315   10    8    8    2
 0.03611998872177511   10    8    8    4
 0.04725061468986975   10    8   10    8
 -0.0111223931414052   10    9    5    1
 -0.06164234214364957   10    9    5    3
 -0.0007095713506814875   10    9    6    1
 -0.003932574529415865   10    9    6    3
 0.0003534264452015534   10    9    7    5
 2.254742094618485e-05   10    9    7    6
 -0.01264071758819315   10    9    9    2
 0.03611998872177512   10    9    9    4
 0.04725061468986977   10    9   10    9
 0.8966076564456148   10   10    1    1
 0.8966814761915141   10   10    2    2
 -0.005525365746304611   10   10    3    1
 0.7247546828234879   10   10    3    3
 0.02098428439075847   10   10    4    2
 0.5597423513590576   10   10    4    4
 0.6203727571770168   10   10    5    5
 0.6203727571770171   10   10    6    6
 -0.02289480637689453   10   10    7    1
 -0.08749981833906949   10   10    7    3
 0.5943240198606388   10   10    7    7
 0.621752235435957   10   10    8    8
 0.6217522354359569   10   10    9    9
 -0.01350584651637084   10   10   10    2
 0.04545452672699393   10   10   10    4
 0.7604132058621524   10   10   10   10
 -27.55650912752362    1    1  0  0
 -27.55570935876521    2    2  0  0
 0.4637803172218357    3    1  0  0
 2.329220317596346e-12    3    2  0  0
 -9.543557699790787    3    3  0  0
 2.506788259942662e-12    4    1  0  0
 -0.4988404560517036    4    2  0  0
 -7.677984982104122    4    4  0  0
 -8.060525611866128    5    5  0  0
 -8.060525611866131    6    6  0  0
 0.263092054275221    7    1  0  0
 1.334804198899676e-12    7    2  0  0
 0.7082351978848964    7    3  0  0
 -7.78008725754796    7    7  0  0
 -7.836565368348609    8    8  0  0
 -7.83656536834861    9    9  0  0
 1.162967348681399e-12   10    1  0  0
 -0.2319753601133577   10    2  0  0
 -0.422904724914764   10    4  0  0
 -8.312518837150671   10   10  0  0
 23.62398263035714  0  0  0  0
