 &FCI NORB=  20,NELEC=20,MS2=0,
  ORBSYM=1,1,1,1,1,1,1,1,1,1,1,1,1,1,1,1,1,1,1,1,
  ISYM=1,
 &END
 0.2071678077956586    1    1    1    1
 -0.03731193514512901    2    1    1    1
 0.1113962987547929    2    1    2    1
 0.1751142852275462    2    2    1    1
 0.04107699676416224    2    2    2    1
 0.215342515151687    2    2    2    2
 -0.01603513835083881    3    1    1    1
 -0.006180265423823635    3    1    2    1
 0.01363857538870599    3    1    2    2
 0.07425038829506206    3    1    3    1
 -0.008947031038045793    3    2    1    1
 0.03728875744474064    3    2    2    1
 0.01742573388700545    3    2    2    2
 -0.01498942165367221    3    2    3    1
 0.05284396126756051    3    2    3    2
 0.1767098574927796    3    3    1    1
 -0.02550137706980695    3    3    2    1
 0.1492648082912133    3    3    2    2
 -0.01290338737334163    3    3    3    1
 -0.01226398740205268    3    3    3    2
 0.19573084703665    3    3    3    3
 -0.01141149602263483    4    1    1    1
 0.02020471005453782    4    1    2    1
 0.003176671246825825    4    1    2    2
 0.01464502058382027    4    1    3    1
 -0.03882408492698034    4    1    3    2
 0.0003328450041198442    4    1    3    3
 0.0553540082637227    4    1    4    1
 0.02870052994029823    4    2    1    1
 0.0007528889694097265    4    2    2    1
 0.005507543435228635    4    2    2    2
 -0.05022706179610715    4    2    3    1
 -0.01452503346960093    4    2    3    2
 0.0003356517819913706    4    2    3    3
 0.01543252355214998    4    2    4    1
 0.06931511095511959    4    2    4    2
 0.02507661666012732    4    3    1    1
 -0.07444526334616951    4    3    2    1
 -0.02707547213432877    4    3    2    2
 0.006193739692740816    4    3    3    1
 -0.03273012245109182    4    3    3    2
 0.02579100380974833    4    3    3    3
 -0.002557415539914875    4    3    4    1
 0.00405311631451912    4    3    4    2
 0.08036409021192584    4    3    4    3
 0.1594468461815206    4    4    1    1
 0.02769925341750825    4    4    2    1
 0.1768599601211047    4    4    2    2
 -0.006771992812980272    4    4    3    1
 0.009762916255748655    4    4    3    2
 0.1609066954246634    4    4    3    3
 0.003691858301082228    4    4    4    1
 0.004886259905475201    4    4    4    2
 -0.0268467762619529    4    4    4    3
 0.1903223687711703    4    4    4    4
 -0.02752615628075137    5    1    1    1
 0.01028559563508928    5    1    2    1
 -0.03073978501890129    5    1    2    2
 -0.01170558991277422    5    1    3    1
 -4.828988176372724e-05    5    1    3    2
 0.02164907364158077    5    1    3    3
 0.006958956182584278    5    1    4    1
 -0.01949308046298507    5    1    4    2
 0.0008504877937224934    5    1    4    3
 0.002284366079917831    5    1    4    4
 0.0520065915859823    5    1    5    1
 0.01098287728653158    5    2    1    1
 -0.0364274504369117    5    2    2    1
 -0.01421992802681049    5    2    2    2
 -0.001436030712645529    5    2    3    1
 0.00512445553229433    5    2    3    2
 -0.0003342270014234154    5    2    3    3
 -0.02807106873345658    5    2    4    1
 -0.01093933012706537    5    2    4    2
 -0.005747090170613526    5    2    4    3
 -0.00104170610861059    5    2    4    4
 -0.009314455718328755    5    2    5    1
 0.04413018256173432    5    2    5    2
 -0.02319615577518191    5    3    1    1
 -0.002845549053575668    5    3    2    1
 -0.0009103252174716169    5    3    2    2
 0.05044608379815964    5    3    3    1
 -0.00652659240428858    5    3    3    2
 -0.01787872013248013    5    3    3    3
 0.006754761864151038    5    3    4    1
 -0.0350900965635703    5    3    4    2
 0.008124028028440576    5    3    4    3
 0.006978323457758265    5    3    4    4
 -0.003692054908979599    5    3    5    1
 -0.003972317199248966    5    3    5    2
 0.06492340667184182    5    3    5    3
 0.01507242963141199    5    4    1    1
 -0.04947224341464913    5    4    2    1
 -0.02053693630845835    5    4    2    2
 0.007096431578521373    5    4    3    1
 -0.0345648737714641    5    4    3    2
 0.01478055929024767    5    4    3    3
 0.01168971239123145    5    4    4    1
 0.00731911583164228    5    4    4    2
 0.04574876082685757    5    4    4    3
 -0.01781539769697164    5    4    4    4
 -0.00101846787169944    5    4    5    1
 0.0006915343441341331    5    4    5    2
 0.007404311977100554    5    4    5    3
 0.0527944202926942    5    4    5    4
 0.1739619063839402    5    5    1    1
 -0.01995762331518447    5    5    2    1
 0.154045141027083    5    5    2    2
 -0.00970247147393608    5    5    3    1
 -0.00861998594151578    5    5    3    2
 0.1734287387713828    5    5    3    3
 -0.001370236010571584    5    5    4    1
 0.008383474122308379    5    5    4    2
 0.01607330455392772    5    5    4    3
 0.1540476223151946    5    5    4    4
 0.001134234295292355    5    5    5    1
 0.003054623592098414    5    5    5    2
 -0.01275346368465218    5    5    5    3
 0.01347708846912716    5    5    5    4
 0.1829791220301157    5    5    5    5
 0.003318397716396456    6    1    1    1
 -0.01610053460021115    6    1    2    1
 -0.006266186866403903    6    1    2    2
 0.01046650436783807    6    1    3    1
 -0.02140821391444511    6    1    3    2
 -0.004199656268078552    6    1    3    3
 0.01304346552394812    6    1    4    1
 0.001693876421803918    6    1    4    2
 -0.01646697246034432    6    1    4    3
 0.003769214650677023    6    1    4    4
 -0.009498996428140741    6    1    5    1
 0.02619034456440711    6    1    5    2
 -0.001405019762541934    6    1    5    3
 0.002764488026559635    6    1    5    4
 0.00067151905043853    6    1    5    5
 0.0407907803689255    6    1    6    1
 -0.01617989276366063    6    2    1    1
 -0.007441894885384748    6    2    2    1
 -0.0356092588743117    6    2    2    2
 -0.02312109562913542    6    2    3    1
 -0.00479794804528354    6    2    3    2
 0.009554014150876852    6    2    3    3
 0.000614295187799399    6    2    4    1
 0.002296598562409036    6    2    4    2
 -0.002684403335111616    6    2    4    3
 0.01380797003603168    6    2    4    4
 0.03180214650631208    6    2    5    1
 0.01031410091495302    6    2    5    2
 0.005756202864565194    6    2    5    3
 0.0001845896728836922    6    2    5    4
 -0.001070030551384026    6    2    5    5
 0.00752052898464415    6    2    6    1
 0.0474906386293984    6    2    6    2
 0.01471618891178136    6    3    1    1
 -0.03016723750289867    6    3    2    1
 -0.007055601317821195    6    3    2    2
 -0.008325710456367185    6    3    3    1
 0.01606715803586647    6    3    3    2
 0.005585007834003788    6    3    3    3
 -0.03502341956861339    6    3    4    1
 -0.007855756620475411    6    3    4    2
 0.0111045074995869    6    3    4    3
 -0.003553971963937743    6    3    4    4
 -0.006080422602248425    6    3    5    1
 0.02390987576984638    6    3    5    2
 -0.009728628666766281    6    3    5    3
 -0.0199472932016643    6    3    5    4
 0.0009399719937819704    6    3    5    5
 4.554559032448803e-05    6    3    6    1
 0.002348071466056499    6    3    6    2
 0.04702318492995879    6    3    6    3
 0.02893790222010209    6    4    1    1
 0.0004153459773389741    6    4    2    1
 0.007944743445480787    6    4    2    2
 -0.04256841789605081    6    4    3    1
 -0.007840914129319736    6    4    3    2
 0.01907712487217444    6    4    3    3
 0.008005950850512604    6    4    4    1
 0.04430378455197231    6    4    4    2
 0.0002629521886740752    6    4    4    3
 0.007032490456010052    6    4    4    4
 -0.002292683312801255    6    4    5    1
 -0.004249876997226672    6    4    5    2
 -0.04330354043166437    6    4    5    3
 0.009463430402328733    6    4    5    4
 0.001063338751997123    6    4    5    5
 0.00169613789331945    6    4    6    1
 0.0008340099536291974    6    4    6    2
 -0.007981174587476689    6    4    6    3
 0.05749333135210567    6    4    6    4
 -0.02177057946399373    6    5    1    1
 0.06754455523940923    6    5    2    1
 0.02503650469682851    6    5    2    2
 -0.008562329242560503    6    5    3    1
 0.03440793690040366    6    5    3    2
 -0.01973256198507645    6    5    3    3
 -0.002036650771431945    6    5    4    1
 -0.003815311927330719    6    5    4    2
 -0.06013617660933159    6    5    4    3
 0.02056422841622114    6    5    4    4
 0.002509420225026832    6    5    5    1
 -0.005350624612845952    6    5    5    2
 -0.006960526641742191    6    5    5    3
 -0.04378989256133527    6    5    5    4
 -0.01710218778041539    6    5    5    5
 -0.001112956902718634    6    5    6    1
 -0.001112443636745999    6    5    6    2
 -0.003204636816528683    6    5    6    3
 -0.003500031611368197    6    5    6    4
 0.06954988327579019    6    5    6    5
 0.1603300446636033    6    6    1    1
 0.01822761475611733    6    6    2    1
 0.1713051834202813    6    6    2    2
 -0.005569673082385127    6    6    3    1
 0.006749350779943461    6    6    3    2
 0.1583426787393409    6    6    3    3
 0.002161558370187353    6    6    4    1
 0.005101706065464922    6    6    4    2
 -0.01596919675126451    6    6    4    3
 0.1680993167965272    6    6    4    4
 -0.001798760042370171    6    6    5    1
 -0.002593654461859191    6    6    5    2
 -0.00702529007664536    6    6    5    3
 -0.009704824824444293    6    6    5    4
 0.1611300030476407    6    6    5    5
 0.0008018764895822148    6    6    6    1
 -0.002579653314457163    6    6    6    2
 -0.003136936608152483    6    6    6    3
 0.004791289103142872    6    6    6    4
 0.01601474344859387    6    6    6    5
 0.1783470137677108    6    6    6    6
 0.001744912396138219    7    1    1    1
 -0.001292726591805195    7    1    2    1
 -0.00487835336872013    7    1    2    2
 -0.01801086684127923    7    1    3    1
 0.005273116913672264    7    1    3    2
 -0.01345171602103632    7    1    3    3
 -0.007345577992211274    7    1    4    1
 0.02262472897771265    7    1    4    2
 0.001842057189018307    7    1    4    3
 0.01236088921212051    7    1    4    4
 -0.01074406248815043    7    1    5    1
 0.0007768728644913208    7    1    5    2
 0.01693786754794658    7    1    5    3
 0.001968813934215061    7    1    5    4
 -0.002818147628516564    7    1    5    5
 -0.006136350390253055    7    1    6    1
 0.01809152767464269    7    1    6    2
 -0.0007248368543573487    7    1    6    3
 -0.001083464575940791    7    1    6    4
 -0.0003790378135586213    7    1    6    5
 -0.001080488505050653    7    1    6    6
 0.03874802046474309    7    1    7    1
 -0.001113145377009188    7    2    1    1
 -0.004062668615832611    7    2    2    1
 -0.00493510629432076    7    2    2    2
 0.005857089595285503    7    2    3    1
 -0.02472532250820964    7    2    3    2
 0.0007373474696206587    7    2    3    3
 0.02511394512580854    7    2    4    1
 0.009832424629182667    7    2    4    2
 -0.003728483887560823    7    2    4    3
 0.005093871943141847    7    2    4    4
 0.0001606957548905822    7    2    5    1
 0.0007172164959219779    7    2    5    2
 -0.0009565490018519707    7    2    5    3
 -0.009694855152415582    7    2    5    4
 -0.001348898350190601    7    2    5    5
 0.02285787054263245    7    2    6    1
 0.008803346235738512    7    2    6    2
 0.006381955084795558    7    2    6    3
 -0.0002510854337736163    7    2    6    4
 -0.0004258788878903864    7    2    6    5
 0.0004556612890025087    7    2    6    6
 -0.00466686571272794    7    2    7    1
 0.0352402662687091    7    2    7    2
 -0.02492255569984613    7    3    1    1
 0.008219748272259029    7    3    2    1
 -0.03111451712988927    7    3    2    2
 -0.01859829100091025    7    3    3    1
 0.00178321841808612    7    3    3    2
 0.00396639263447292    7    3    3    3
 0.002937267526230995    7    3    4    1
 -0.004220033423819668    7    3    4    2
 -0.003628313875089316    7    3    4    3
 -0.008471703608437282    7    3    4    4
 0.03284250651711534    7    3    5    1
 -0.003755221720088812    7    3    5    2
 -0.009488373046297516    7    3    5    3
 0.0004847184625252504    7    3    5    4
 0.01373607569553823    7    3    5    5
 -0.004531761831488072    7    3    6    1
 0.02244204591099782    7    3    6    2
 -0.007195309456131153    7    3    6    3
 -0.01246773695370367    7    3    6    4
 0.0007050229446039478    7    3    6    5
 0.0004663988867234258    7    3    6    6
 -0.001553542833524896    7    3    7    1
 -0.001630394330739346    7    3    7    2
 0.04504869868097647    7    3    7    3
 -0.01172269716061819    7    4    1    1
 0.03828766262102023    7    4    2    1
 0.0151883485004016    7    4    2    2
 0.003055921254654139    7    4    3    1
 -0.005735955165462749    7    4    3    2
 -0.00457657191089814    7    4    3    3
 0.02846172099602524    7    4    4    1
 0.009659973831107642    7    4    4    2
 -0.01345037137322838    7    4    4    3
 0.007885743414051634    7    4    4    4
 0.004952881865332825    7    4    5    1
 -0.02843301741525045    7    4    5    2
 0.003245049532369289    7    4    5    3
 3.546239998745836e-05    7    4    5    4
 -0.002154207450002671    7    4    5    5
 -0.007380144653739547    7    4    6    1
 -0.005199900046875441    7    4    6    2
 -0.03068439250707081    7    4    6    3
 0.008977375067725156    7    4    6    4
 -0.005424520812949482    7    4    6    5
 0.001578819854762611    7    4    6    6
 -0.0009028405614401154    7    4    7    1
 0.0006174134763618592    7    4    7    2
 0.004585479339029622    7    4    7    3
 0.0440849940102817    7    4    7    4
 -0.02811040398657881    7    5    1    1
 -0.0005614234375199579    7    5    2    1
 -0.005848284659767069    7    5    2    2
 0.04806561275257897    7    5    3    1
 -0.004439784957575797    7    5    3    2
 -0.02015577216880681    7    5    3    3
 0.005696875381925758    7    5    4    1
 -0.03758157269904241    7    5    4    2
 0.003973813046732371    7    5    4    3
 -0.006565984759083643    7    5    4    4
 -0.001000666129347622    7    5    5    1
 -0.002396756798544718    7    5    5    2
 0.04771611476635469    7    5    5    3
 0.002234254593790063    7    5    5    4
 -0.01258088549203304    7    5    5    5
 0.0008617294881398685    7    5    6    1
 -0.002539538694858773    7    5    6    2
 -0.005423123785964114    7    5    6    3
 -0.04090370065122912    7    5    6    4
 -0.006905151849565552    7    5    6    5
 0.003822677390128724    7    5    6    6
 0.001191844772717465    7    5    7    1
 0.0009563514882066444    7    5    7    2
 -0.00124873387502958    7    5    7    3
 0.003932112292692607    7    5    7    4
 0.05759979643866048    7    5    7    5
 -0.017778314483138    7    6    1    1
 0.05629083974315488    7    6    2    1
 0.02273142280672289    7    6    2    2
 -0.006561062773614458    7    6    3    1
 0.03508738571915285    7    6    3    2
 -0.01738941525601359    7    6    3    3
 -0.008725748357159176    7    6    4    1
 -0.006887995118526526    7    6    4    2
 -0.05100408458560839    7    6    4    3
 0.01858721068157262    7    6    4    4
 0.0008643593727450696    7    6    5    1
 -0.002301376443034642    7    6    5    2
 -0.005193456368253003    7    6    5    3
 -0.04462162322174529    7    6    5    4
 -0.01402307842745266    7    6    5    5
 -0.002948496110194009    7    6    6    1
 -0.00126306007440946    7    6    6    2
 0.006219791380090239    7    6    6    3
 -0.006337003753869063    7    6    6    4
 0.05093551147108671    7    6    6    5
 0.0132860959916989    7    6    6    6
 -0.0002836714711334674    7    6    7    1
 0.001195219424302357    7    6    7    2
 0.0004215968630070893    7    6    7    3
 0.000877379806000215    7    6    7    4
 -0.003595235573683471    7    6    7    5
 0.05803645517690587    7    6    7    6
 0.1701325289924114    7    7    1    1
 -0.01300158484570298    7    7    2    1
 0.1568745559261518    7    7    2    2
 -0.007490574631489504    7    7    3    1
 -0.005330447317805083    7    7    3    2
 0.1692226555815237    7    7    3    3
 -0.001257789006508464    7    7    4    1
 0.007123792271115714    7    7    4    2
 0.01091799723776247    7    7    4    3
 0.1593562316707348    7    7    4    4
 0.0003847968606590026    7    7    5    1
 0.001718189831286649    7    7    5    2
 -0.006513378596190693    7    7    5    3
 0.008397532969979065    7    7    5    4
 0.1678907133414794    7    7    5    5
 -0.000394282822961797    7    7    6    1
 0.001701337233099325    7    7    6    2
 0.001437543013094023    7    7    6    3
 0.007099548063539032    7    7    6    4
 -0.009583935592667271    7    7    6    5
 0.1597724495978261    7    7    6    6
 0.001113705616484208    7    7    7    1
 -0.0008835419376591264    7    7    7    2
 0.0006258179870467464    7    7    7    3
 -0.002329258521369186    7    7    7    4
 -0.008212374186764007    7    7    7    5
 -0.01015569214434008    7    7    7    6
 0.1753037458068147    7    7    7    7
 0.0009307407940291936    8    1    1    1
 -0.003009944422271284    8    1    2    1
 -0.000334759154986647    8    1    2    2
 -0.0009322368060558438    8    1    3    1
 0.007917147154671764    8    1    3    2
 -0.008602913271249138    8    1    3    3
 -0.01206995852350349    8    1    4    1
 -0.003335431595517019    8    1    4    2
 -0.01448726423075496    8    1    4    3
 0.000916196027819057    8    1    4    4
 -0.008794614531264575    8    1    5    1
 0.01901838378538425    8    1    5    2
 0.002489808417421017    8    1    5    3
 0.01292766864791929    8    1    5    4
 0.002321194345760574    8    1    5    5
 0.01053101187206554    8    1    6    1
 0.0008262596891250154    8    1    6    2
 -0.01261718119893995    8    1    6    3
 0.001824686544250837    8    1    6    4
 -0.0003512407783718282    8    1    6    5
 0.0005082395519049994    8    1    6    6
 0.006533630572326039    8    1    7    1
 -0.01823966297321662    8    1    7    2
 0.001273705055910005    8    1    7    3
 -0.0004108821369909003    8    1    7    4
 0.0002403218367195391    8    1    7    5
 -0.003189085547862865    8    1    7    6
 0.0004122766344319839    8    1    7    7
 0.0313758763313343    8    1    8    1
 -0.002313888813944842    8    2    1    1
 -0.000603087066702747    8    2    2    1
 -0.0007424870052796107    8    2    2    2
 0.008082326583441608    8    2    3    1
 0.003482947587964781    8    2    3    2
 0.01928006754576241    8    2    3    3
 -0.00387391067497476    8    2    4    1
 -0.02471789005067021    8    2    4    2
 -0.002275410529030368    8    2    4    3
 0.003183096651441075    8    2    4    4
 0.02025470642609029    8    2    5    1
 0.004903302793744328    8    2    5    2
 -0.005152549443270251    8    2    5    3
 0.002788109453671987    8    2    5    4
 -0.006979816392973153    8    2    5    5
 0.0004090454924063926    8    2    6    1
 0.002546517647363872    8    2    6    2
 -0.001310578506868456    8    2    6    3
 0.01115764588606866    8    2    6    4
 -0.0008869281181795736    8    2    6    5
 -0.001440390642851829    8    2    6    6
 -0.02188736237816353    8    2    7    1
 -0.007291266309306941    8    2    7    2
 -0.005712933641183819    8    2    7    3
 0.0004538360593329864    8    2    7    4
 -0.002238267858377419    8    2    7    5
 -0.0007826224013707859    8    2    7    6
 -0.0002480175931259234    8    2    7    7
 0.00312620381825174    8    2    8    1
 0.03443519944796358    8    2    8    2
 -0.001724265190813581    8    3    1    1
 0.01116582642935689    8    3    2    1
 0.004181604128707527    8    3    2    2
 -0.01168419227442541    8    3    3    1
 0.02411188340792669    8    3    3    2
 7.550654236922949e-05    8    3    3    3
 -0.0199532374878376    8    3    4    1
 -0.003613086132699406    8    3    4    2
 0.002418633895862065    8    3    4    3
 -0.0008680819763131785    8    3    4    4
 0.004360183453085863    8    3    5    1
 -0.007848123378343409    8    3    5    2
 -0.003673991412632739    8    3    5    3
 -0.008906562788355263    8    3    5    4
 0.002292787702239812    8    3    5    5
 -0.02419598229386675    8    3    6    1
 -0.003363694702144236    8    3    6    2
 0.006592132756578162    8    3    6    3
 -0.001295638622115964    8    3    6    4
 -0.01236353552012736    8    3    6    5
 -0.00199237853475473    8    3    6    6
 0.00457263482326258    8    3    7    1
 -0.01777649922919882    8    3    7    2
 0.007234223382936641    8    3    7    3
 0.01715877993179495    8    3    7    4
 0.001007202167214639    8    3    7    5
 0.001907953115961986    8    3    7    6
 -2.196776839477724e-05    8    3    7    7
 0.0008396727171455183    8    3    8    1
 0.001213572657587735    8    3    8    2
 0.03795751009690981    8    3    8    3
 -0.0176328648432402    8    4    1    1
 -0.005815484291362734    8    4    2    1
 -0.03591359747751522    8    4    2    2
 -0.02350091418176743    8    4    3    1
 -0.003714212246402232    8    4    3    2
 0.003318260718016386    8    4    3    3
 0.0005836921063627676    8    4    4    1
 0.004531336839896734    8    4    4    2
 0.0002382374947071967    8    4    4    3
 -0.0066804402779096    8    4    4    4
 0.02636900314857382    8    4    5    1
 0.005555628039267057    8    4    5    2
 -0.01062756807362629    8    4    5    3
 0.003048867877837287    8    4    5    4
 0.003452085607523692    8    4    5    5
 0.003351052305028875    8    4    6    1
 0.02836475936105564    8    4    6    2
 0.0002412792348465182    8    4    6    3
 0.0003899234548446166    8    4    6    4
 0.001392319252349199    8    4    6    5
 0.008897425235994747    8    4    6    6
 0.00419885342652378    8    4    7    1
 0.003661654214286792    8    4    7    2
 0.03068725527351923    8    4    7    3
 -0.007862643581798672    8    4    7    4
 0.006012452770586886    8    4    7    5
 -0.0006273969579849599    8    4    7    6
 0.000323823984762154    8    4    7    7
 0.0004585492113704305    8    4    8    1
 -0.002612070144434123    8    4    8    2
 -0.003426721506403886    8    4    8    3
 0.04206278562681909    8    4    8    4
 -0.01636147833884009    8    5    1    1
 0.03658828161624039    8    5    2    1
 0.009467826725998926    8    5    2    2
 0.005649714506121787    8    5    3    1
 -0.009968368172428053    8    5    3    2
 -0.006020845594688689    8    5    3    3
 0.0320230948516783    8    5    4    1
 0.007159325058330492    8    5    4    2
 -0.01423600123470356    8    5    4    3
 0.005175025161546796    8    5    4    4
 0.007697049128379469    8    5    5    1
 -0.02648397930330673    8    5    5    2
 0.006184255471714539    8    5    5    3
 0.005911711063611253    8    5    5    4
 -0.003887642400102587    8    5    5    5
 -0.003723604549936726    8    5    6    1
 -0.002665174242875675    8    5    6    2
 -0.0360928581731581    8    5    6    3
 0.005686422873915288    8    5    6    4
 0.006872195842760442    8    5    6    5
 0.002735577263689966    8    5    6    6
 -0.001028362962148368    8    5    7    1
 -0.0006938508608342748    8    5    7    2
 0.006633687158395574    8    5    7    3
 0.0312154022320726    8    5    7    4
 0.006616496544141023    8    5    7    5
 -0.01210192938223506    8    5    7    6
 -0.0008755862267792061    8    5    7    7
 0.002725813378357639    8    5    8    1
 2.237190035853379e-05    8    5    8    2
 0.0006729185615874352    8    5    8    3
 -0.001930243317901807    8    5    8    4
 0.04575671265105925    8    5    8    5
 0.030715723790965    8    6    1    1
 0.000358761637268288    8    6    2    1
 0.01053958408137861    8    6    2    2
 -0.04164528573643302    8    6    3    1
 -0.004723300718579952    8    6    3    2
 0.01990016769550177    8    6    3    3
 0.004587778819730076    8    6    4    1
 0.0416249127741909    8    6    4    2
 1.959451306713498e-05    8    6    4    3
 0.006225604443835411    8    6    4    4
 -0.003500251379008975    8    6    5    1
 -0.003393400532819971    8    6    5    2
 -0.04424712766234921    8    6    5    3
 0.00565599711276488    8    6    5    4
 0.01362471883275832    8    6    5    5
 0.0005996764381003525    8    6    6    1
 -0.002568125188207709    8    6    6    2
 -0.003771543408027783    8    6    6    3
 0.04440025989865254    8    6    6    4
 -0.0003388339022237698    8    6    6    5
 0.006351171036745335    8    6    6    6
 -0.002338917822914177    8    6    7    1
 0.0001928551782720161    8    6    7    2
 -0.002101355543333862    8    6    7    3
 0.004127393823262664    8    6    7    4
 -0.0440931251071608    8    6    7    5
 -0.006105363914611137    8    6    7    6
 -0.0001760712487448018    8    6    7    7
 0.0004225031103163108    8    6    8    1
 0.001577808557851725    8    6    8    2
 -0.001080584858690885    8    6    8    3
 -0.0008220914970856805    8    6    8    4
 0.004093373836047406    8    6    8    5
 0.05401179215212115    8    6    8    6
 0.01976299323352724    8    7    1    1
 -0.06238328345253973    8    7    2    1
 -0.02341324976013872    8    7    2    2
 0.008912924903774481    8    7    3    1
 -0.03488772022343969    8    7    3    2
 0.0189895472688073    8    7    3    3
 0.005591743861758341    8    7    4    1
 0.004984935931125599    8    7    4    2
 0.06017165205901798    8    7    4    3
 -0.02053188382398704    8    7    4    4
 -0.001498347914414864    8    7    5    1
 4.327283538305601e-05    8    7    5    2
 0.008642828040763492    8    7    5    3
 0.04522484700362538    8    7    5    4
 0.01464722412417522    8    7    5    5
 -0.002428526615118802    8    7    6    1
 -0.0001275445213162516    8    7    6    2
 -0.001290291299229392    8    7    6    3
 0.003430661616484822    8    7    6    4
 -0.05707738857200279    8    7    6    5
 -0.013701714995826    8    7    6    6
 0.001331754615863443    8    7    7    1
 -0.001536780145007909    8    7    7    2
 -0.002002122328760948    8    7    7    3
 -0.001718590132010176    8    7    7    4
 0.005782088584155042    8    7    7    5
 -0.05047906672266201    8    7    7    6
 0.01041336161267625    8    7    7    7
 -0.001941675775181771    8    7    8    1
 -0.0002436595339451054    8    7    8    2
 0.001606797757397424    8    7    8    3
 5.272549591467999e-05    8    7    8    4
 -0.001577553765267116    8    7    8    5
 0.001983815636551692    8    7    8    6
 0.06492874775585378    8    7    8    7
 0.1601866136190031    8    8    1    1
 0.009875106365234832    8    8    2    1
 0.1655227060018603    8    8    2    2
 -0.003510421355929622    8    8    3    1
 0.004130685312198995    8    8    3    2
 0.1635801348535448    8    8    3    3
 0.0006963602631444995    8    8    4    1
 -0.0002231803774029362    8    8    4    2
 -0.009084620377285576    8    8    4    3
 0.1668275123697321    8    8    4    4
 0.003542080649487831    8    8    5    1
 -0.0006924124423336726    8    8    5    2
 -0.004520547995942838    8    8    5    3
 -0.00550701838613422    8    8    5    4
 0.1619770005932098    8    8    5    5
 0.0004788253609882772    8    8    6    1
 0.001210612071378236    8    8    6    2
 -0.001454888643536664    8    8    6    3
 0.003208430089400318    8    8    6    4
 0.008483092371453871    8    8    6    5
 0.1652534127347424    8    8    6    6
 -0.002646732098671999    8    8    7    1
 5.974199088793428e-06    8    8    7    2
 0.001242153363863065    8    8    7    3
 0.001188810303588519    8    8    7    4
 -0.005023257865777163    8    8    7    5
 0.006313048813402727    8    8    7    6
 0.162516012254077    8    8    7    7
 0.0002595858265386205    8    8    8    1
 0.003622254632384205    8    8    8    2
 -0.0007677065309844346    8    8    8    3
 -9.045677559834927e-05    8    8    8    4
 0.001805302109133583    8    8    8    5
 0.004270000665554058    8    8    8    6
 -0.008572366799894917    8    8    8    7
 0.1732918777548604    8    8    8    8
 -0.0001607820225109107    9    1    1    1
 0.0004785510657406405    9    1    2    1
 0.001843464394567791    9    1    2    2
 0.002952021456097679    9    1    3    1
 -0.0008802064659947174    9    1    3    2
 -0.01131705045545766    9    1    3    3
 0.0009782576651694687    9    1    4    1
 0.003371979438953184    9    1    4    2
 -0.004471736909522993    9    1    4    3
 -0.01755720057942562    9    1    4    4
 -0.01249639879683979    9    1    5    1
 0.00239276169134642    9    1    5    2
 -0.01329284811601003    9    1    5    3
 -9.954446169332846e-05    9    1    5    4
 0.01306294115541307    9    1    5    5
 0.005977804675322351    9    1    6    1
 -0.01870230197062205    9    1    6    2
 -0.001269366571646295    9    1    6    3
 -0.01034989838168156    9    1    6    4
 -0.001662051882613444    9    1    6    5
 0.004722815511581796    9    1    6    6
 -0.01055012755634977    9    1    7    1
 0.0007605235037239883    9    1    7    2
 0.01359558601316474    9    1    7    3
 0.001509815709621014    9    1    7    4
 0.002887209662458923    9    1    7    5
 -0.0001827996384699258    9    1    7    6
 -0.001256996646926262    9    1    7    7
 0.004788547522696412    9    1    8    1
 -0.01512623636496342    9    1    8    2
 0.00176606251675912    9    1    8    3
 0.004508746019583584    9    1    8    4
 0.0008457918600923204    9    1    8    5
 0.001567542496364598    9    1    8    6
 -0.001132714371031248    9    1    8    7
 -0.001507394320285388    9    1    8    8
 0.03166398913525517    9    1    9    1
 0.0003113273008071254    9    2    1    1
 0.001617604052255141    9    2    2    1
 0.001298775992262549    9    2    2    2
 -0.0009542775324860606    9    2    3    1
 -0.0008320035691744492    9    2    3    2
 0.003168880190733399    9    2    3    3
 0.003243368925978434    9    2    4    1