 &FCI NORB=   4,NELEC= 4,MS2=0,
  ORBSYM=1,1,1,1,
  ISYM=1,
 &END
 0.498500766426004    1    1    1    1
 -0.02010949899613276    2    1    1    1
 0.1499599052212749    2    1    2    1
 0.4246059488602133    2    2    1    1
 0.01580890118598283    2    2    2    1
 0.4483197177380521    2    2    2    2
 -0.08156508722491042    3    1    1    1
 -0.01512951980330852    3    1    2    1
 0.0106171219237417    3    1    2    2
 0.1064482704242961    3    1    3    1
 -0.02740197064196124    3    2    1    1
 0.09713342479917271    3    2    2    1
 0.01289623123415294    3    2    2    2
 0.00784846337422674    3    2    3    1
 0.14371465966729    3    2    3    2
 0.435830314886273    3    3    1    1
 0.01287993352749794    3    3    2    1
 0.4432460679724134    3    3    2    2
 -0.004759557537754124    3    3    3    1
 0.008754537270309712    3    3    3    2
 0.4616501479403944    3    3    3    3
 0.01717472416737661    4    1    1    1
 -0.04303140518838895    4    1    2    1
 -0.004577895987394949    4    1    2    2
 -0.009434852935766999    4    1    3    1
 0.05068947084477354    4    1    3    2
 -0.003443911308249064    4    1    3    3
 0.100332226102975    4    1    4    1
 -0.08340090779920004    4    2    1    1
 -0.01250030817467433    4    2    2    1
 -0.001740327871305771    4    2    2    2
 0.09710371581828446    4    2    3    1
 0.01019056440886285    4    2    3    2
 -0.0001963701832234307    4    2    3    3
 -0.008135108096363551    4    2    4    1
 0.1029802440644882    4    2    4    2
 -0.01840574977848644    4    3    1    1
 0.1444050333995006    4    3    2    1
 0.01773353529348036    4    3    2    2
 -0.01370551316461997    4    3    3    1
 0.09921203603027408    4    3    3    2
 0.01467570127736936    4    3    3    3
 -0.04128872239577838    4    3    4    1
 -0.01301406266473041    4    3    4    2
 0.1563418857628059    4    3    4    3
 0.522841517069575    4    4    1    1
 -0.0166368919390123    4    4    2    1
 0.4522144547925215    4    4    2    2
 -0.08573286074327471    4    4    3    1
 -0.02689033738154938    4    4    3    2
 0.4685628434478728    4    4    3    3
 0.01669768217548485    4    4    4    1
 -0.09250016418139226    4    4    4    2
 -0.01629437908616962    4    4    4    3
 0.5789097939130408    4    4    4    4
 -1.809151765242551    1    1  0  0
 0.004301133910178414    2    1  0  0
 -1.513510515905113    2    2  0  0
 0.1574640336823662    3    1  0  0
 0.02677815264327978    3    2  0  0
 -1.241807630618601    3    3  0  0
 -0.02051927419797928    4    1  0  0
 0.1255109289965243    4    2  0  0
 0.002100679207152455    4    3  0  0
 -0.9220335026186937    4    4  0  0
 2.226704693205823  0  0  0  0
