 &FCI NORB=           4 , NELEC=           4 , MS2=           0 ,
 ORBSYM=1,1,1,1,
 ISYM=0,
 /
  0.604838745663391                1           1           1           1
 -8.093520916799757E-002           3           1           1           1
  0.183881128866900                2           1           2           1
  3.640331985615189E-002           4           1           2           1
  0.108980593638774                3           1           3           1
  7.959376981104993E-002           4           1           4           1
  0.577925283388565                2           2           1           1
  9.296476360094541E-002           4           2           1           1
  0.100470662227185                3           2           2           1
 -9.344609823019744E-002           4           2           3           1
  0.608797970351218                3           3           1           1
 -0.169107845734995                4           3           2           1
 -6.141138634256210E-002           3           3           3           1
 -4.107825191113079E-015           4           3           3           1
 -4.711820596052296E-002           4           3           4           1
  0.675780003328732                4           4           1           1
 -0.114535341042302                4           4           3           1
 -1.258468729277495E-002           3           1           2           2
 -4.310158941598520E-002           4           1           3           2
  0.600287478458046                2           2           2           2
  4.279932826335686E-002           4           2           2           2
  0.111382494612053                3           2           3           2
  0.102238840330805                4           2           4           2
  0.598261358623316                3           3           2           2
 -1.665334536937735E-015           4           3           2           2
  1.977584762613560E-015           3           3           3           2
 -8.590862332948070E-002           4           3           3           2
  2.997602166487923E-015           4           3           4           2
  0.646718511308512                4           4           2           2
  4.121702978920894E-015           4           4           3           2
  0.140148317355143                4           4           4           2
 -6.141138634256210E-002           3           1           3           3
 -1.776356839400250E-015           4           1           3           3
 -4.711820596052296E-002           4           1           4           3
  1.977584762613560E-015           3           2           3           3
  6.338403429951167E-002           4           2           3           3
  2.997602166487923E-015           4           2           4           3
  0.652186849281255                3           3           3           3
  0.187276640687549                4           3           4           3
  0.705222083587547                4           4           3           3
 -3.969047313034935E-015           4           4           4           3
  0.140148317355143                4           2           4           4
 -3.969047313034935E-015           4           3           4           4
  0.842681873229279                4           4           4           4
  -2.58118770049245                1           1           0           0
  0.287522731814347                3           1           0           0
  1.197037581411275E-015           4           1           0           0
  -2.15953339038217                2           2           0           0
 -1.354492982388733E-015           3           2           0           0
 -0.283839000006268                4           2           0           0
  -1.09397369626414                3           3           0           0
 -1.436398526614079E-015           4           3           0           0
  0.213298127470502                4           4           0           0
   4.88654631705405                0           0           0           0
