 &FCI NORB=   4,NELEC= 4,MS2=0,
  ORBSYM=1,1,1,1,
  ISYM=1,
 &END
 0.9195328626323125    1    1    1    1
 0.1004050223500198    2    1    2    1
 0.7489064849922067    2    2    1    1
 0.7546538803440254    2    2    2    2
 -0.2134807100158221    3    1    1    1
 1.05833744545869e-12    3    1    2    1
 -0.06810843946895952    3    1    2    2
 0.1576967563632399    3    1    3    1
 3.06089181778546e-12    3    2    1    1
 0.1088442744692159    3    2    2    1
 -6.157629961478506e-12    3    2    2    2
 -6.082891135239521e-12    3    2    3    1
 0.1623291229916061    3    2    3    2
 0.9170875125505131    3    3    1    1
 -2.589484182635715e-12    3    3    2    1
 0.8107473198711809    3    3    2    2
 -0.2063494580133346    3    3    3    1
 1.003686415140913    3    3    3    3
 3.549303212446731e-12    4    1    1    1
 0.05698222334673708    4    1    2    1
 -2.471545190729785e-11    4    1    2    2
 -5.960251389658389e-12    4    1    3    1
 0.01400195076423315    4    1    3    2
 2.91409466002257e-11    4    1    3    3
 0.1041535886047399    4    1    4    1
 0.18017914613037    4    2    1    1
 1.238817728954622e-11    4    2    2    1
 0.07799580975976989    4    2    2    2
 -0.1076727323272417    4    2    3    1
 -5.202710484653039e-11    4    2    3    2
 0.1540163841929147    4    2    3    3
 -1.254454387589199e-10    4    2    4    1
 0.1177507115879959    4    2    4    2
 -4.095460082176317e-12    4    3    1    1
 -0.08014321161260257    4    3    2    1
 1.159248252946554e-10    4    3    2    2
 2.28779252486877e-11    4    3    3    1
 -0.0857321240505044    4    3    3    2
 -1.188338594193539e-10    4    3    3    3
 -0.0593126192586009    4    3    4    1
 -1.380002945250425e-09    4    3    4    2
 0.09355773061147815    4    3    4    3
 1.094738394876357    4    4    1    1
 -1.528111526205578e-10    4    4    2    1
 0.9117294445739682    4    4    2    2
 -0.2955914183843043    4    4    3    1
 9.264671252395829e-10    4    4    3    2
 1.153084644745729    4    4    3    3
 1.484388348349519e-09    4    4    4    1
 0.2838932327740016    4    4    4    2
 -5.9573084243425e-09    4    4    4    3
 1.495614380529416    4    4    4    4
 -4.381079422569877    1    1  0  0
 -1.376082894880638e-12    2    1  0  0
 -2.064656599524863    2    2  0  0
 0.45854185799011    3    1  0  0
 -5.946466536520111e-12    3    2  0  0
 0.1822844877040756    3    3  0  0
 -1.785829127391849e-11    4    1  0  0
 -0.3813718862321519    4    2  0  0
 6.573609082235891e-11    4    3  0  0
 5.179962352894248    4    4  0  0
 22.9310124732  0  0  0  0
