 &FCI NORB=  15,NELEC=22,MS2=0,
  ORBSYM=1,1,1,1,1,1,1,1,1,1,1,1,1,1,1,
  ISYM=1,
 &END
 4.5445724289051    1    1    1    1
 0.1065006561479323    2    1    1    1
 0.8185714174569815    2    1    2    1
 3.817124790771182    2    2    1    1
 0.2845316155656111    2    2    2    1
 3.865029261779189    2    2    2    2
 0.5620745483007112    3    1    1    1
 -0.2256995305947974    3    1    2    1
 0.01116143739349468    3    1    2    2
 0.6063382119162239    3    1    3    1
 -0.3163132143070824    3    2    1    1
 -0.2900984164880772    3    2    2    1
 -0.09030512538772645    3    2    2    2
 -0.2236100676352856    3    2    3    1
 0.4536162154026909    3    2    3    2
 3.370028162059686    3    3    1    1
 -0.2106239745152625    3    3    2    1
 3.110735325162618    3    3    2    2
 0.1678472032702678    3    3    3    1
 0.1052679416613538    3    3    3    2
 3.163477021351233    3    3    3    3
 -0.05705106434703498    4    1    1    1
 0.01994126524296784    4    1    2    1
 -0.05825071401705278    4    1    2    2
 0.0256840544431476    4    1    3    1
 -0.02784014438501493    4    1    3    2
 -0.04856387408617679    4    1    3    3
 0.02992459905672002    4    1    4    1
 0.05171000210959158    4    2    1    1
 -0.02404680874522716    4    2    2    1
 0.04411139524904194    4    2    2    2
 -0.008747834327921407    4    2    3    1
 0.02315113810733712    4    2    3    2
 0.04498154540512039    4    2    3    3
 -0.01230618515208236    4    2    4    1
 0.02242951977648704    4    2    4    2
 0.096974806962827    4    3    1    1
 -0.02223155339834269    4    3    2    1
 0.07947609775690896    4    3    2    2
 0.0193312058725237    4    3    3    1
 0.002965084165712916    4    3    3    2
 0.05791879181567237    4    3    3    3
 0.003585605925547693    4    3    4    1
 0.00672467183641777    4    3    4    2
 0.03798245113759148    4    3    4    3
 1.331806553939689    4    4    1    1
 -0.01792147714234777    4    4    2    1
 1.272850391181808    4    4    2    2
 0.05952058515629685    4    4    3    1
 -0.01549105331757399    4    4    3    2
 1.244774471596481    4    4    3    3
 0.02968669670860106    4    4    4    1
 -0.008146889512624428    4    4    4    2
 0.02919673068788753    4    4    4    3
 1.061120837973744    4    4    4    4
 0.03557058970504813    5    1    5    1
 -0.004901042755763392    5    2    5    1
 0.01748143376206081    5    2    5    2
 -0.01035881521806771    5    3    5    1
 -0.0004699023890357106    5    3    5    2
 0.02728319136872988    5    3    5    3
 0.03784965697479549    5    4    5    1
 -0.004611268372314356    5    4    5    2
 -0.02475298573365078    5    4    5    3
 0.2612614449848409    5    4    5    4
 1.373336375993178    5    5    1    1
 0.00727109842372357    5    5    2    1
 1.313390528793157    5    5    2    2
 0.0396016078650382    5    5    3    1
 -0.03276942037148872    5    5    3    2
 1.268445824364692    5    5    3    3
 0.02995641647002054    5    5    4    1
 -0.005911114769881753    5    5    4    2
 0.0142988268010903    5    5    4    3
 1.049598125474252    5    5    4    4
 1.115583237899832    5    5    5    5
 -0.003513850316696097    6    1    1    1
 -0.1488630385548481    6    1    2    1
 -0.07329656318283045    6    1    2    2
 0.05392551376397792    6    1    3    1
 0.03527366508499134    6    1    3    2
 0.05900574663741903    6    1    3    3
 -0.002380073749972862    6    1    4    1
 0.01540851900776465    6    1    4    2
 0.001740647376245855    6    1    4    3
 0.006262394710654632    6    1    4    4
 0.004313384835350233    6    1    5    5
 0.04408069082761513    6    1    6    1
 -0.4483565405958581    6    2    1    1
 -0.1226857724781118    6    2    2    1
 -0.4280112810498811    6    2    2    2
 -0.00472106061879026    6    2    3    1
 0.05419056095607711    6    2    3    2
 -0.2619565760641911    6    2    3    3
 0.02750962913416917    6    2    4    1
 -0.01736701267202146    6    2    4    2
 -0.01731071912498931    6    2    4    3
 -0.0175955174733886    6    2    4    4
 -0.02363307566391719    6    2    5    5
 0.02488054037910745    6    2    6    1
 0.1138657164785183    6    2    6    2
 0.07884845939975228    6    3    1    1
 -0.002232031453357391    6    3    2    1
 0.02950670738644031    6    3    2    2
 0.07735298393167944    6    3    3    1
 -0.0356888871146711    6    3    3    2
 0.001129712984878248    6    3    3    3
 0.001781901680208017    6    3    4    1
 -0.0117747696390512    6    3    4    2
 -0.0027623793184375    6    3    4    3
 0.006068430082897922    6    3    4    4
 -0.005012521026543039    6    3    5    5
 -0.00828031378807827    6    3    6    1
 -0.007960258693530136    6    3    6    2
 0.0354518329990262    6    3    6    3
 -0.02118851207483013    6    4    1    1
 0.1009108206776795    6    4    2    1
 -0.05186193613528838    6    4    2    2
 0.0004991574627568773    6    4    3    1
 -0.07546075635789112    6    4    3    2
 -0.07824692773006493    6    4    3    3
 0.006658364597700942    6    4    4    1
 0.02013137280354824    6    4    4    2
 0.01312501727066387    6    4    4    3
 0.02361398805243679    6    4    4    4
 0.014528939778813    6    4    5    5
 0.0004904759797095693    6    4    6    1
 -0.01496026158709311    6    4    6    2
 -0.01896411560294146    6    4    6    3
 0.1406582517266256    6    4    6    4
 0.001715059018920787    6    5    5    1
 0.01427761661899397    6    5    5    2
 -0.003337460419785735    6    5    5    3
 0.01285217714942754    6    5    5    4
 0.05192862780076483    6    5    6    5
 1.344912601108659    6    6    1    1
 0.0190659468959742    6    6    2    1
 1.356144523695495    6    6    2    2
 0.01442016799595809    6    6    3    1
 -0.01063744091615015    6    6    3    2
 1.262431279929304    6    6    3    3
 0.01605803921544223    6    6    4    1
 -0.01522240949478727    6    6    4    2
 0.004041625732717833    6    6    4    3
 0.9550052471151439    6    6    4    4
 0.9445317129679827    6    6    5    5
 -0.009073211150257497    6    6    6    1
 -0.02023353436277902    6    6    6    2
 0.005889653204574991    6    6    6    3
 -0.04541484062029593    6    6    6    4
 1.044286756761816    6    6    6    6
 0.1555438978751817    7    1    1    1
 -0.07432217153745869    7    1    2    1
 -0.01261553295314138    7    1    2    2
 0.1635819099513733    7    1    3    1
 -0.06563766495964525    7    1    3    2
 0.07089024944159246    7    1    3    3
 0.0005936274190420716    7    1    4    1
 -0.002312124452485559    7    1    4    2
 -0.00157837161431337    7    1    4    3
 0.005572972927747696    7    1    4    4
 0.005172251832430156    7    1    5    5
 0.01981056110728862    7    1    6    1
 -0.0006735406083513136    7    1    6    2
 0.01829670254809342    7    1    6    3
 0.001607593061949421    7    1    6    4
 -0.003377031314692714    7    1    6    6
 0.05277609793822851    7    1    7    1
 -0.1342657628870036    7    2    1    1
 -0.1177885335809375    7    2    2    1
 -0.0596980134636688    7    2    2    2
 -0.0747414846646669    7    2    3    1
 0.1395968544644614    7    2    3    2
 0.0124429545881663    7    2    3    3
 -0.009634543576335369    7    2    4    1
 0.007217952560724595    7    2    4    2
 0.005872997423699514    7    2    4    3
 -0.01151322082684932    7    2    4    4
 -0.01419853320181543    7    2    5    5
 0.01511431735325156    7    2    6    1
 0.02519569281782097    7    2    6    2
 -0.01706166925313129    7    2    6    3
 -0.02808014517039941    7    2    6    4
 -0.007501583204522689    7    2    6    6
 -0.01994907016580264    7    2    7    1
 0.05197426623159847    7    2    7    2
 0.5280283774750989    7    3    1    1
 -0.09560946800360978    7    3    2    1
 0.4257566425484381    7    3    2    2
 0.1130312871385286    7    3    3    1
 0.0176886961354267    7    3    3    2
 0.3965921525080328    7    3    3    3
 -0.0193036671398782    7    3    4    1
 0.01997602249760065    7    3    4    2
 0.0333115007105347    7    3    4    3
 0.05580705707035155    7    3    4    4
 0.05649825495577385    7    3    5    5
 0.01636754742485753    7    3    6    1
 -0.06371313073470444    7    3    6    2
 0.01966828697868496    7    3    6    3
 -0.01959334708352643    7    3    6    4
 0.06481687103066221    7    3    6    6
 0.02850827203712033    7    3    7    1
 0.002314569306658678    7    3    7    2
 0.1309260983943501    7    3    7    3
 -0.001077609420227834    7    4    1    1
 -0.01714211810198905    7    4    2    1
 0.04660229027808281    7    4    2    2
 -0.06229735672269775    7    4    3    1
 0.05687396709406235    7    4    3    2
 0.08756963096713556    7    4    3    3
 -0.01600628471577336    7    4    4    1
 -4.097822389374029e-05    7    4    4    2
 -0.03719592427861623    7    4    4    3
 -0.05824315418387455    7    4    4    4
 -0.02500591394325854    7    4    5    5
 0.003736586461647496    7    4    6    1
 -0.008630322747038026    7    4    6    2
 -0.01067841125062528    7    4    6    3
 -0.06097570152581176    7    4    6    4
 -0.01411045669677719    7    4    6    6
 -0.01193288988153799    7    4    7    1
 0.01932009395704791    7    4    7    2
 -0.0185016442348629    7    4    7    3
 0.1234679011766173    7    4    7    4
 0.001132005776848009    7    5    5    1
 3.680389284032806e-05    7    5    5    2
 -0.0145607403866481    7    5    5    3
 0.004361467435037745    7    5    5    4
 -0.001926042656667638    7    5    6    5
 0.03303523498304727    7    5    7    5
 0.05499277420069698    7    6    1    1
 0.01118355193848081    7    6    2    1
 0.04968196538342458    7    6    2    2
 0.00376381545615647    7    6    3    1
 -0.0231662729400861    7    6    3    2
 0.04830811269562326    7    6    3    3
 -0.002371037797299569    7    6    4    1
 -0.006313881323773    7    6    4    2
 -0.01039465727230346    7    6    4    3
 -0.03220679218237518    7    6    4    4
 -0.004528227141395821    7    6    5    5
 -0.004350680297176622    7    6    6    1
 -0.00717318798758627    7    6    6    2
 -0.007362421655444374    7    6    6    3
 -0.02671011554941706    7    6    6    4
 0.007525542541196597    7    6    6    6
 0.006673709129463697    7    6    7    1
 -0.0009689316499531493    7    6    7    2
 -0.007233081617418493    7    6    7    3
 0.03945871229995609    7    6    7    4
 0.05596992848312093    7    6    7    6
 1.226804927663732    7    7    1    1
 0.01023067754167992    7    7    2    1
 1.209149073538818    7    7    2    2
 -0.01033655542987296    7    7    3    1
 0.005879850554205148    7    7    3    2
 1.236563504187145    7    7    3    3
 -0.001778011735285591    7    7    4    1
 0.006766782146184883    7    7    4    2
 -0.0215019786746301    7    7    4    3
 0.8617100261017194    7    7    4    4
 0.8530534549355701    7    7    5    5
 0.01445935279331877    7    7    6    1
 -0.03979915029350555    7    7    6    2
 -0.02471180244945832    7    7    6    3
 0.01718201831638681    7    7    6    4
 0.8514823968804747    7    7    6    6
 0.0011187096948871    7    7    7    1
 -0.00148526178873175    7    7    7    2
 0.01166243193669239    7    7    7    3
 0.0909162416024997    7    7    7    4
 0.0432241534640076    7    7    7    6
 1.022738664142568    7    7    7    7
 0.009749975251142195    8    1    1    1
 -0.005820290626300632    8    1    2    1
 0.01684703152451773    8    1    2    2
 0.006685697895781838    8    1    3    1
 -0.0008803610220768689    8    1    3    2
 -0.01091488399172008    8    1    3    3
 -0.01098533392904147    8    1    4    1
 0.004431107722930991    8    1    4    2
 -0.004113426213317319    8    1    4    3
 -0.02130009257862505    8    1    4    4
 -0.02305895810235999    8    1    5    5
 -7.985063259232034e-05    8    1    6    1
 -0.006771908299236425    8    1    6    2
 0.00159348876601208    8    1    6    3
 -0.004099399176442429    8    1    6    4
 -0.003952255719729774    8    1    6    6
 0.002063491585457938    8    1    7    1
 -0.000216875097874331    8    1    7    2
 0.009468524614292401    8    1    7    3
 0.002317516178966585    8    1    7    4
 0.002463358546608724    8    1    7    6
 -0.007299739957112805    8    1    7    7
 0.009863820710399976    8    1    8    1
 0.00607097654390401    8    2    1    1
 0.06111416922852182    8    2    2    1
 0.008378493303427175    8    2    2    2
 -0.01012348998033342    8    2    3    1
 -0.03095046033769493    8    2    3    2
 -0.007678295160490541    8    2    3    3
 0.005517460842561142    8    2    4    1
 -0.001497794892243394    8    2    4    2
 -0.0009850776223175514    8    2    4    3
 0.01086442723938024    8    2    4    4
 0.01327578751543542    8    2    5    5
 -0.006695543619100477    8    2    6    1
 -0.006937012634334294    8    2    6    2
 -0.005471208131556293    8    2    6    3
 0.01874818695297659    8    2    6    4
 0.002712922379600521    8    2    6    6
 -0.003298124105574958    8    2    7    1
 -0.0137090764904619    8    2    7    2
 -0.01124913212804737    8    2    7    3
 -0.003928112702494877    8    2    7    4
 -0.002250911968183613    8    2    7    6
 0.01115051233794812    8    2    7    7
 -0.002565073440324527    8    2    8    1
 0.01134654188973203    8    2    8    2
 0.02021438450566729    8    3    1    1
 -0.0006844772712936423    8    3    2    1
 0.01743019556301319    8    3    2    2
 -0.03094665167210631    8    3    3    1
 0.01793292793344438    8    3    3    2
 0.06117383146207161    8    3    3    3
 -0.01178891874287846    8    3    4    1
 0.001134799944640515    8    3    4    2
 -0.01595506973668208    8    3    4    3
 -0.01500339335700828    8    3    4    4
 -0.005726874029305942    8    3    5    5
 0.0007939385992651944    8    3    6    1
 -0.01051623170606625    8    3    6    2
 -0.004050670217395509    8    3    6    3
 -0.007151900581436312    8    3    6    4
 -0.01448259378610153    8    3    6    6
 0.001409455395427843    8    3    7    1
 0.002683016254950389    8    3    7    2
 -0.008953561128766573    8    3    7    3
 0.02889387409451501    8    3    7    4
 0.008192805976219247    8    3    7    6
 0.02614996367175489    8    3    7    7
 -0.001533951951390901    8    3    8    1
 -0.0005810701338317945    8    3    8    2
 0.02705071460290653    8    3    8    3
 -0.1205298166883218    8    4    1    1
 0.01091782512990328    8    4    2    1
 -0.08586132596493272    8    4    2    2
 -0.02665805521925596    8    4    3    1
 0.006900638637949991    8    4    3    2
 -0.09670280351123739    8    4    3    3
 -0.006965257754779132    8    4    4    1
 0.001677311347632295    8    4    4    2
 -0.01194145595238563    8    4    4    3
 -0.04974323519065878    8    4    4    4
 -0.04983831868387539    8    4    5    5
 -0.003162902830757117    8    4    6    1
 0.0138309978275026    8    4    6    2
 -0.001536978988178693    8    4    6    3
 0.001561010906395329    8    4    6    4
 0.01318024695603466    8    4    6    6
 -0.005806138553181006    8    4    7    1
 0.002397067221491946    8    4    7    2
 -0.008243966121553932    8    4    7    3
 0.001919312910066249    8    4    7    4
 -0.004844143417302916    8    4    7    6
 -0.02702760045043654    8    4    7    7
 0.007420194638341111    8    4    8    1
 -0.001913818617313817    8    4    8    2
 -0.002020687352324003    8    4    8    3
 0.04225310169106385    8    4    8    4
 -0.01271124691372163    8    5    5    1
 0.004057748645284845    8    5    5    2
 0.003481318551404953    8    5    5    3
 -0.02973672945271453    8    5    5    4
 0.005559507471228493    8    5    6    5
 -0.0009770951290360061    8    5    7    5
 0.02320510695509865    8    5    8    5
 -0.0119605651573018    8    6    1    1
 0.06144502738208859    8    6    2    1
 -0.02426228970150563    8    6    2    2
 -0.01360868331558659    8    6    3    1
 -0.05147375505730587    8    6    3    2
 -0.03607447529389842    8    6    3    3
 -0.001889289536206432    8    6    4    1
 0.01988103457117437    8    6    4    2
 0.002295421568468726    8    6    4    3
 -0.005333625364681759    8    6    4    4
 0.006790987363943069    8    6    5    5
 0.00810684161880742    8    6    6    1
 -0.01188377011993872    8    6    6    2
 -0.02914051693099954    8    6    6    3
 0.1175711501043667    8    6    6    4
 -0.04527491503304446    8    6    6    6
 0.0007945416421532704    8    6    7    1
 -0.01776135474357764    8    6    7    2
 -0.0130573403771566    8    6    7    3
 -0.02284675693792152    8    6    7    4
 -0.007752564379771682    8    6    7    6
 0.03846151697924482    8    6    7    7
 0.00205237707767717    8    6    8    1
 0.01739650854835806    8    6    8    2
 -0.00416039300584923    8    6    8    3
 0.015935251627088    8    6    8    4
 0.1696236871742113    8    6    8    6
 -0.07338873891762382    8    7    1    1
 -0.00600861443969407    8    7    2    1
 -0.09173148168631841    8    7    2    2
 0.02081942026817095    8    7    3    1
 -0.01139327245120881    8    7    3    2
 -0.09130589937557282    8    7    3    3
 0.0006803780088423242    8    7    4    1
 -0.000554409692226406    8    7    4    2
 0.007325818795322739    8    7    4    3
 -0.03869577363755766    8    7    4    4
 -0.03845057571914876    8    7    5    5
 0.0009092920646332979    8    7    6    1
 0.002510229824935021    8    7    6    2
 0.003595864434046281    8    7    6    3
 -0.002819801647200917    8    7    6    4
 -0.04425390182933366    8    7    6    6
 0.004853761479756681    8    7    7    1
 -0.0008363052614139417    8    7    7    2
 0.001016823379715687    8    7    7    3
 -0.008669237958456401    8    7    7    4
 0.008250689320398737    8    7    7    6
 -0.04263915909646502    8    7    7    7
 0.001214388374636793    8    7    8    1
 -0.001608196315266827    8    7    8    2
 -0.008772733321653032    8    7    8    3
 -0.004951332815029265    8    7    8    4
 -0.001267273434954942    8    7    8    6
 0.02797960589634963    8    7    8    7
 0.9617294161883405    8    8    1    1
 0.027212719363417    8    8    2    1
 0.9563337552107053    8    8    2    2
 -0.001504738071648728    8    8    3    1
 -0.02226350570432848    8    8    3    2
 0.9363902156485138    8    8    3    3
 0.01421830653874302    8    8    4    1
 -0.001432364861724792    8    8    4    2
 0.0003097680808144034    8    8    4    3
 0.769698033064614    8    8    4    4
 0.7659660096025802    8    8    5    5
 0.004570041922044593    8    8    6    1
 -0.007251472127627059    8    8    6    2
 -0.01356483929645248    8    8    6    3
 0.02985759918585628    8    8    6    4
 0.8250813793679513    8    8    6    6
 -0.00113988266323007    8    8    7    1
 -0.01019828954679955    8    8    7    2
 0.02069976225124926    8    8    7    3
 -0.01175132865049944    8    8    7    4
 0.003609033410439431    8    8    7    6
 0.7397257517419037    8    8    7    7
 -0.005247210898338478    8    8    8    1
 0.01119115078924587    8    8    8    2
 -0.007403096064924149    8    8    8    3
 0.02270485703251216    8    8    8    4
 0.05837769268783632    8    8    8    6
 -0.02830989476356651    8    8    8    7
 0.7766726327334801    8    8    8    8
 -0.001608228342078498    9    1    5    1
 0.009060916794355655    9    1    5    2
 -0.005856530232425361    9    1    5    3
 -0.004095093886554306    9    1    5    4
 0.005759443486762617    9    1    6    5
 0.00095733451787649    9    1    7    5
 0.00143003496964093    9    1    8    5
 0.006652077561893083    9    1    9    1
 0.01842320657734766    9    2    5    1
 -0.003558157108452751    9    2    5    2
 -0.0102035672200448    9    2    5    3
 0.03792444617077768    9    2    5    4
 0.0001984087548447817    9    2    6    5
 0.002307956812334669    9    2    7    5
 -0.004791380808608667    9    2    8    5
 -0.000782077451078659    9    2    9    1
 0.01576418497584436    9    2    9    2
 -0.01324431389810513    9    3    5    1
 -0.005292401574746348    9    3    5    2
 0.01003608918470949    9    3    5    3
 -0.03187192416897327    9    3    5    4
 -0.0118392038520432    9    3    6    5
 -0.007065864775551683    9    3    7    5
 0.005844258070946937    9    3    8    5
 -0.003794088108826226    9    3    9    1
 -0.009916435230595553    9    3    9    2
 0.01774291156895558    9    3    9    3
 -0.005184934435949029    9    4    5    1
 0.01491860957031596    9    4    5    2
 -0.01019451752851968    9    4    5    3
 -0.02509767134041865    9    4    5    4
 0.0449228222877626    9    4    6    5
 0.01703244028496397    9    4    7    5
 0.01348942608883093    9    4    8    5
 0.006913847201613072    9    4    9    1
 -0.00394604144546402    9    4    9    2
 -0.007491978164900682    9    4    9    3
 0.06007136791965797    9    4    9    4
 -0.02104979730871633    9    5    1    1
 0.08929476935568907    9    5    2    1
 -0.004454038143421206    9    5    2    2
 -0.05335198869000479    9    5    3    1
 -0.03492240596096169    9    5    3    2
 -0.009593937059979955    9    5    3    3
 -0.007525644983951646    9    5    4    1
 0.02075989461283439    9    5    4    2
 -0.0208142031655205    9    5    4    3
 -0.03781680266810732    9    5    4    4
 -0.01985530080330211    9    5    5    5
 0.003354386747801804    9    5    6    1
 -0.01390202116634073    9    5    6    2
 -0.02752443625130482    9    5    6    3
 0.08692762899360615    9    5    6    4
 -0.02948108547045033    9    5    6    6
 -0.007678625085756575    9    5    7    1
 -0.01222837268633685    9    5    7    2
 -0.02722013647603359    9    5    7    3
 0.03122988481275592    9    5    7    4
 0.009778354855891387    9    5    7    6
 0.06478985299795846    9    5    7    7
 0.002249388494153505    9    5    8    1
 0.01184804347924794    9    5    8    2
 0.01151372901693297    9    5    8    3
 0.02101053823600615    9    5    8    4
 0.0938470627904948    9    5    8    6
 -0.006093676759101562    9    5    8    7
 0.03651148297837312    9    5    8    8
 0.136475256204751    9    5    9    5
 0.01767565885171102    9    6    5    1
 -0.002647980474311931    9    6    5    2
 -0.02069551291629163    9    6    5    3
 0.1266519622254274    9    6    5    4
 -0.001314555109141406    9    6    6    5
 0.0121521064128134    9    6    7    5
 0.006471501857388391    9    6    8    5
 -0.0007015158836091162    9    6    9    1
 0.02455209464191545    9    6    9    2
 -0.01979203913785909    9    6    9    3
 -0.01005903923133875    9    6    9    4
 0.1048451096081832    9    6    9    6
 0.005728199103988318    9    7    5    1
 0.0004006747668330054    9    7    5    2
 -0.01399007721968625    9    7    5    3
 0.05640658966740605    9    7    5    4
 0.007977790694820741    9    7    6    5
 0.02431752337273548    9    7    7    5
 -0.004227172738490879    9    7    8    5
 0.0003119178418316412    9    7    9    1
 0.009447102662908302    9    7    9    2
 -0.01539175169462344    9    7    9    3
 0.01017765039623968    9    7    9    4
 0.04311886944174757    9    7    9    6
 0.0511177150220455    9    7    9    7
 0.002724110545985532    9    8    5    1
 0.004373625983914941    9    8    5    2
 0.001277662514705385    9    8    5    3
 0.02961234575537124    9    8    5    4
 0.03080466946279619    9    8    6    5
 -0.001916151648453327    9    8    7    5
 0.008423872229799404    9    8    8    5
 0.0004097821886630042    9    8    9    1
 0.004097464755297599    9    8    9    2
 -0.007027498170401715    9    8    9    3
 0.02109229967744776    9    8    9    4
 0.01710900266855171    9    8    9    6
 0.01295756638150466    9    8    9    7
 0.04354524652735215    9    8    9    8
 1.089843980302797    9    9    1    1
 0.0170157815794321    9    9    2    1
 1.082604155813661    9    9    2    2
 0.000546704600643288    9    9    3    1
 -0.02730819149304362    9    9    3    2
 1.055952149249579    9    9    3    3
 0.0178556656799278    9    9    4    1
 -0.006595208488728552    9    9    4    2
 -0.002875598808773817    9    9    4    3
 0.8711961309159494    9    9    4    4
 0.9169908872017239    9    9    5    5
 0.002587948980618964    9    9    6    1
 -0.006375923141268761    9    9    6    2
 -0.01811568188682087    9    9    6    3
 -0.001786400418710594    9    9    6    4
 0.8745462902063049    9    9    6    6
 -0.001039148393938344    9    9    7    1
 -0.005506320503707763    9    9    7    2
 0.02203443206367126    9    9    7    3
 0.01277730136623386    9    9    7    4
 0.03151434666543645    9    9    7    6
 0.8140756082961974    9    9    7    7
 -0.01035827943278028    9    9    8    1
 0.01038717942677144    9    9    8    2
 -0.003453238223648024    9    9    8    3
 -0.007215882927488474    9    9    8    4
 0.02026259657467488    9    9    8    6
 -0.02556642452157564    9    9    8    7
 0.7426852132340657    9    9    8    8
 0.01636744519624574    9    9    9    5
 0.8671374213082506    9    9    9    9
 0.01350632352510131   10    1    1    1
 0.008726246315796861   10    1    2    1
 -0.0043636970880184   10    1    2    2
 0.02353145932270368   10    1    3    1
 -0.004221885889604034   10    1    3    2
 -0.01017573690163901   10    1    3    3
 0.008645896454075383   10    1    4    1
 0.001208781470258088   10    1    4    2
 0.00039473770220189   10    1    4    3
 0.0108617377751726   10    1    4    4
 0.01186421486468144   10    1    5    5
 0.001522749755622975   10    1    6    1
 0.00403889231905789   10    1    6    2
 0.004165559531444497   10    1    6    3
 0.008534185446502337   10    1    6    4
 0.0008131542633341664   10    1    6    6
 0.002442025636630492   10    1    7    1
 -0.005690342831579937   10    1    7    2
 0.002806933980464522   10    1    7    3
 -0.009553514843931073   10    1    7    4
 -0.006375222390326309   10    1    7    6
 -0.003498487936654655   10    1    7    7
 -0.00215027133405798   10    1    8    1
 0.001714397202280543   10    1    8    2
 -0.005121313158028017   10    1    8    3
 -0.002058973928803869   10    1    8    4
 0.002659596175959947   10    1    8    6
 0.000225770354906899   10    1    8    7
 0.001647165107462202   10    1    8    8
 -0.0004271874637739716   10    1    9    5
 0.001316553303235092   10    1    9    9
 0.007688911780550325   10    1   10    1
 0.0078963026008835   10    2    1    1
 -0.005869343251768383   10    2    2    1
 -0.0205942402741233   10    2    2    2
 0.02926159370197721   10    2    3    1
 -0.01474595685581981   10    2    3    2
 -0.02752365333308865   10    2    3    3
 0.00523614638085472   10    2    4    1
 0.005334374598982787   10    2    4    2
 0.01038938038563834   10    2    4    3
 0.007977043355732613   10    2    4    4
 0.003280389330123178   10    2    5    5
 0.004294145833478102   10    2    6    1
 0.0007319275043553153   10    2    6    2
 -0.002256460349850873   10    2    6    3
 0.01112402191677081   10    2    6    4
 -0.003524278430695395   10    2    6    6
 0.002974156725044459   10    2    7    1
 -0.005125069243260688   10    2    7    2
 0.005826302357354313   10    2    7    3
 -0.01752923515543201   10    2    7    4
 -0.006445252239816933   10    2    7    6
 -0.01132333084976799   10    2    7    7
 -0.0002114273758288887   10    2    8    1
 0.00147436744472535   10    2    8    2
 -0.007223615452161351   10    2    8    3
 -0.002207350432703849   10    2    8    4
 0.00609603694473491   10    2    8    6
 0.002214552165750349   10    2    8    7
 0.0001298204517152242   10    2    8    8
 -0.002473870900400376   10    2    9    5
 -0.001962832655722085   10    2    9    9
 0.00388376644241273   10    2   10    1
 0.01080077951936742   10    2   10    2
 0.03860490307521896   10    3    1    1
 0.04320450864892379   10    3    2    1
 0.02902431396600325   10    3    2    2
 -0.02104184587869269   10    3    3    1
 -0.02962936299729938   10    3    3    2
 0.02448799918348911   10    3    3    3
 -0.005611006530336441   10    3    4    1
 0.008188497466900825   10    3    4    2
 0.001355231460439083   10    3    4    3
 -0.01834936096097547   10    3    4    4
 -0.009521736118822847   10    3    5    5
 0.000239068044954357   10    3    6    1
 -0.01727303272450468   10    3    6    2
 -0.01462305113388678   10    3    6    3
 0.02138243968051837   10    3    6    4
 -0.01207912940076966   10    3    6    6
 -0.0001245823396356837   10    3    7    1
 -0.005149818490308796   10    3    7    2
 -0.006863001448495584   10    3    7    3
 0.007791671414134512   10    3    7    4
 0.01240107940805848   10    3    7    6
 0.01931810930395454   10    3    7    7
 -0.0005260242902760193   10    3    8    1
 0.004011228308384546   10    3    8    2
 0.007164466016915766   10    3    8    3
 0.0005805315906815535   10    3    8    4
 0.0202858624920572   10    3    8    6
 -0.001548311704980573   10    3    8    7
 0.002944124285855105   10    3    8    8
 0.02477568583083256   10    3    9    5
 0.001849428392262597   10    3    9    9
 -0.003643200174037337   10    3   10    1
 -0.001188848735022253   10    3   10    2
 0.02134384576899056   10    3   10    3
 0.08546102766249614   10    4    1    1
 0.01935901871958038   10    4    2    1
 0.0956933588811445   10    4    2    2
 -0.01971889399266943   10    4    3    1
 0.01510412100392888   10    4    3    2
 0.08719611205271305   10    4    3    3
 -0.002402704815466276   10    4    4    1
 0.007361543443840437   10    4    4    2
 -0.01662883724325897   10    4    4    3
 0.01603853275397638   10    4    4    4
 0.02314210982300948   10    4    5    5
 0.004122988441570673   10    4    6    1
 -0.008138445337980107   10    4    6    2
 0.002917099708020117   10    4    6    3
 0.01086798713286458   10    4    6    4
 0.03098404185499168   10    4    6    6
 -0.006225115389076415   10    4    7    1
 -0.003361105142418204   10    4    7    2