 &FCI NORB=  10,NELEC= 8,MS2=0,
  ORBSYM=1,1,1,1,1,1,1,1,1,1,
  ISYM=1,
 &END
 1.243352392545658    1    1    1    1
 1.457895931032246e-12    2    1    1    1
 1.029142611713365    2    1    2    1
 1.244323416836579    2    2    1    1
 -1.458229375961106e-12    2    2    2    1
 1.245297603612672    2    2    2    2
 -0.119864200243659    3    1    2    1
 0.01991203432269411    3    1    3    1
 -0.1190954708047677    3    2    1    1
 -0.1192908971706843    3    2    2    2
 0.01997986972983858    3    2    3    2
 0.3988000544016153    3    3    1    1
 0.3987475120365402    3    3    2    2
 -0.004489627769083107    3    3    3    2
 0.3432646585260497    3    3    3    3
 0.1266391855278715    4    1    1    1
 0.1267983560249141    4    1    2    2
 -0.0204864623853874    4    1    3    2
 0.008570611789808802    4    1    3    3
 0.02247254903172144    4    1    4    1
 0.1251838226024141    4    2    2    1
 -0.02048636368512336    4    2    3    1
 0.02249760617540357    4    2    4    2
 -0.1613150656370131    4    3    2    1
 0.006592232273605061    4    3    3    1
 -0.005566246972740898    4    3    4    2
 0.07962941026530679    4    3    4    3
 0.3824387208895605    4    4    1    1
 0.3825287436167403    4    4    2    2
 -0.007735024858209802    4    4    3    2
 0.2901508576511789    4    4    3    3
 0.006426738278719271    4    4    4    1
 0.2999814890854698    4    4    4    4
 -0.02908153643696782    5    1    2    1
 0.003995097829507407    5    1    3    1
 -0.007291979072704536    5    1    4    2
 -0.001181231517983139    5    1    4    3
 0.007943087849639688    5    1    5    1
 -0.03491680560091243    5    2    1    1
 -0.03486060944721532    5    2    2    2
 0.003937723248333527    5    2    3    2
 -0.009760990068316865    5    2    3    3
 -0.007356551450434105    5    2    4    1
 0.001383893928664878    5    2    4    4
 0.00831083137487372    5    2    5    2
 -0.02288518805539574    5    3    1    1
 -0.02275437234171739    5    3    2    2
 -0.003022510042624102    5    3    3    2
 -0.051155945400075    5    3    3    3
 -0.001848854680479365    5    3    4    1
 0.004290432111284328    5    3    4    4
 0.01007145183450102    5    3    5    2
 0.04985188546351672    5    3    5    3
 -0.1133186247935116    5    4    2    1
 0.004754976246385687    5    4    3    1
 -0.0001752746174294917    5    4    4    2
 0.06611458380582694    5    4    4    3
 -0.009087462854243326    5    4    5    1
 0.08461336366117964    5    4    5    4
 0.3851072235583283    5    5    1    1
 0.3851544968863659    5    5    2    2
 -0.004411014558327388    5    5    3    2
 0.3107642910943814    5    5    3    3
 0.00414536081257565    5    5    4    1
 0.3043276539385921    5    5    4    4
 -0.0001089947664778857    5    5    5    2
 -0.01327737917528708    5    5    5    3
 0.3291892100672902    5    5    5    5
 0.007034703149885977    6    1    6    1
 0.007168651404306462    6    2    6    2
 0.01026114021718483    6    3    6    2
 0.05129444285640217    6    3    6    3
 -0.008897890437693529    6    4    6    1
 0.03608108840381281    6    4    6    4
 0.001862320807453112    6    5    6    2
 0.002363774559007469    6    5    6    3
 0.01461924075354578    6    5    6    5
 0.3793204121242135    6    6    1    1
 0.3792980864958311    6    6    2    2
 -0.003307066027238643    6    6    3    2
 0.3159097891526486    6    6    3    3
 0.004802052557821206    6    6    4    1
 0.290661277573386    6    6    4    4
 -0.004225433807242275    6    6    5    2
 -0.02490775591764648    6    6    5    3
 0.2957233248593836    6    6    5    5
 0.3195815271141411    6    6    6    6
 0.00703470314988598    7    1    7    1
 0.007168651404306464    7    2    7    2
 0.01026114021718483    7    3    7    2
 0.05129444285640219    7    3    7    3
 -0.008897890437693531    7    4    7    1
 0.03608108840381281    7    4    7    4
 0.001862320807453113    7    5    7    2
 0.002363774559007469    7    5    7    3
 0.01461924075354578    7    5    7    5
 0.01245776446746826    7    6    7    6
 0.3793204121242136    7    7    1    1
 0.3792980864958312    7    7    2    2
 -0.003307066027238665    7    7    3    2
 0.3159097891526486    7    7    3    3
 0.004802052557821229    7    7    4    1
 0.290661277573386    7    7    4    4
 -0.004225433807242284    7    7    5    2
 -0.02490775591764649    7    7    5    3
 0.2957233248593837    7    7    5    5
 0.2946659981792048    7    7    6    6
 0.3195815271141413    7    7    7    7
 -0.007822029479610809    8    1    6    2
 -0.01099770834162665    8    1    6    3
 -0.002124899329659496    8    1    6    5
 -0.001733367978298511    8    1    7    2
 -0.002437100949789642    8    1    7    3
 -0.0004708793881102846    8    1    7    5
 0.008956333509357388    8    1    8    1
 -0.007616039378728049    8    2    6    1
 0.009481450136208932    8    2    6    4
 -0.001687720407467007    8    2    7    1
 0.002101096920789968    8    2    7    4
 0.008653513658341659    8    2    8    2
 -0.008591162548191261    8    3    6    1
 0.03307938806602802    8    3    6    4
 -0.001903808480421774    8    3    7    1
 0.007330418808165356    8    3    7    4
 0.00955793375969684    8    3    8    2
 0.03362096486100639    8    3    8    3
 0.01040540802649863    8    4    6    2
 0.04484595998837893    8    4    6    3
 0.01190302892681573    8    4    6    5
 0.002305846727026201    8    4    7    2
 0.009937900541354145    8    4    7    3
 0.00263772071433434    8    4    7    5
 -0.01181386071303734    8    4    8    1
 0.04854104086244744    8    4    8    4
 -0.002882034810557038    8    5    6    1
 0.01525630310478444    8    5    6    4
 -0.0006386612152233602    8    5    7    1
 0.003380808949644268    8    5    7    4
 0.00332171509480563    8    5    8    2
 0.01082925276816202    8    5    8    3
 0.01499244424544673    8    5    8    5
 -0.1799896167910153    8    6    2    1
 0.004573894542199634    8    6    3    1
 -0.003541394871934786    8    6    4    2
 0.09255145260257712    8    6    4    3
 -0.0014122509708451    8    6    5    1
 0.07123955982999423    8    6    5    4
 0.1232921082902124    8    6    8    6
 -0.03988584279629811    8    7    2    1
 0.001013578682646139    8    7    3    1
 -0.0007847759313005972    8    7    4    2
 0.02050947579582656    8    7    4    3
 -0.0003129559427722447    8    7    5    1
 0.01578674334062176    8    7    5    4
 0.02474280779278304    8    7    8    6
 0.01712026674307291    8    7    8    7
 0.3959873149896213    8    8    1    1
 0.3959842705027618    8    8    2    2
 -0.004489367226398531    8    8    3    2
 0.3139681923744106    8    8    3    3
 0.00528553984426299    8    8    4    1
 0.2993641087266295    8    8    4    4
 -0.003024587169836398    8    8    5    2
 -0.01607955580625747    8    8    5    3
 0.3009949177481539    8    8    5    5
 0.3219755471868168    8    8    6    6
 0.005383373876773426    8    8    7    6
 0.2988753912538068    8    8    7    7
 0.3306272871036726    8    8    8    8
 0.00173336797829851    9    1    6    2
 0.002437100949789637    9    1    6    3
 0.0004708793881102836    9    1    6    5
 -0.007822029479610811    9    1    7    2
 -0.01099770834162665    9    1    7    3
 -0.002124899329659495    9    1    7    5
 0.008956333509357385    9    1    9    1
 0.001687720407467005    9    2    6    1
 -0.002101096920789965    9    2    6    4
 -0.007616039378728049    9    2    7    1
 0.00948145013620893    9    2    7    4
 0.008653513658341659    9    2    9    2
 0.001903808480421772    9    3    6    1
 -0.007330418808165344    9    3    6    4
 -0.008591162548191261    9    3    7    1
 0.03307938806602803    9    3    7    4
 0.009557933759696836    9    3    9    2
 0.03362096486100639    9    3    9    3
 -0.002305846727026197    9    4    6    2
 -0.009937900541354135    9    4    6    3
 -0.002637720714334337    9    4    6    5
 0.01040540802649863    9    4    7    2
 0.04484595998837894    9    4    7    3
 0.01190302892681573    9    4    7    5
 -0.01181386071303734    9    4    9    1
 0.04854104086244743    9    4    9    4
 0.0006386612152233596    9    5    6    1
 -0.003380808949644262    9    5    6    4
 -0.002882034810557038    9    5    7    1
 0.01525630310478444    9    5    7    4
 0.003321715094805629    9    5    9    2
 0.01082925276816202    9    5    9    3
 0.01499244424544673    9    5    9    5
 0.03988584279629805    9    6    2    1
 -0.001013578682646139    9    6    3    1
 0.0007847759313005997    9    6    4    2
 -0.02050947579582653    9    6    4    3
 0.0003129559427722435    9    6    5    1
 -0.01578674334062173    9    6    5    4
 -0.02474280779278299    9    6    8    6
 0.0061542148167795    9    6    8    7
 0.01712026674307289    9    6    9    6
 -0.1799896167910153    9    7    2    1
 0.004573894542199637    9    7    3    1
 -0.003541394871934785    9    7    4    2
 0.09255145260257715    9    7    4    3
 -0.001412250970845104    9    7    5    1
 0.07123955982999422    9    7    5    4
 0.10001762673036    9    7    8    6
 0.02474280779278303    9    7    8    7
 -0.024742807792783    9    7    9    6
 0.1232921082902124    9    7    9    7
 -0.005383373876773285    9    8    6    6
 0.01155007796650509    9    8    7    6
 0.005383373876773301    9    8    7    7
 0.01365720244219808    9    8    9    8
 0.3959873149896212    9    9    1    1
 0.3959842705027617    9    9    2    2
 -0.004489367226398525    9    9    3    2
 0.3139681923744105    9    9    3    3
 0.005285539844262999    9    9    4    1
 0.2993641087266294    9    9    4    4
 -0.003024587169836398    9    9    5    2
 -0.01607955580625748    9    9    5    3
 0.3009949177481538    9    9    5    5
 0.2988753912538066    9    9    6    6
 -0.005383373876773258    9    9    7    6
 0.3219755471868169    9    9    7    7
 0.3033128822192763    9    9    8    8
 0.3306272871036724    9    9    9    9
 -0.05491993682770043   10    1    1    1
 -0.05514280536215634   10    1    2    2
 0.01162094937370734   10    1    3    2
 0.006935471126260216   10    1    3    3
 -0.008167155020132629   10    1    4    1
 -0.007139611041423888   10    1    4    4
 -0.006254068128706892   10    1    5    2
 -0.01281903339343881   10    1    5    3
 -0.003308045410366695   10    1    5    5
 0.00237833935679897   10    1    6    6
 0.002378339356798971   10    1    7    7
 0.0003828421186648809   10    1    8    8
 0.0003828421186648809   10    1    9    9
 0.01650274831400404   10    1   10    1
 -0.06328468657413014   10    2    2    1
 0.01160234981909139   10    2    3    1
 -0.008321265821452338   10    2    4    2
 0.006480878390961147   10    2    4    3
 -0.005806283090317577   10    2    5    1
 0.01369616749376654   10    2    5    4
 0.004948887636037403   10    2    8    6
 0.001096677451659447   10    2    8    7
 -0.001096677451659446   10    2    9    6
 0.004948887636037402   10    2    9    7
 0.01605315580510994   10    2   10    2
 0.08808626945911917   10    3    2    1
 -0.002172013062774149   10    3    3    1
 0.006000957244352192   10    3    4    2
 -0.03182880936147752   10    3    4    3
 -0.008600013957445389   10    3    5    1
 0.004069353337777332   10    3    5    4
 -0.04116438509005419   10    3    8    6
 -0.009122060604276689   10    3    8    7
 0.009122060604276677   10    3    9    6
 -0.04116438509005419   10    3    9    7
 0.007643145724595077   10    3   10    2
 0.04752100825833612   10    3   10    3
 -0.03524531607538112   10    4    1    1
 -0.03513919958772475   10    4    2    2
 3.55988695283601e-05   10    4    3    2
 -0.03932107029782459   10    4    3    3
 -0.00445017131425311   10    4    4    1
 0.003562783732767571   10    4    4    4
 0.009849179991909471   10    4    5    2
 0.03683551520793213   10    4    5    3
 0.001712551884104651   10    4    5    5
 -0.02512613997243233   10    4    6    6
 -0.02512613997243233   10    4    7    7
 -0.01985856587064993   10    4    8    8
 -0.01985856587064993   10    4    9    9
 -0.01061025033707516   10    4   10    1
 0.03681065726858604   10    4   10    4
 -0.1605007689737433   10    5    2    1
 0.004138466507038289   10    5    3    1
 -0.003269773747493634   10    5    4    2
 0.07744448200004542   10    5    4    3
 -0.001134060895981157   10    5    5    1
 0.06956539462316318   10    5    5    4
 0.08537432944391245   10    5    8    6
 0.01891901957318483   10    5    8    7
 -0.0189190195731848   10    5    9    6
 0.08537432944391245   10    5    9    7
 0.004677536452612857   10    5   10    2
 -0.03317830008915134   10    5   10    3
 0.09307485172654992   10    5   10    5
 0.004007712779704096   10    6    6    1
 -0.01076009142541138   10    6    6    4
 -0.004148966097323245   10    6    8    2
 -0.01465385638525315   10    6    8    3
 0.005694101723712887   10    6    8    5
 0.0009194141999710384   10    6    9    2
 0.003247306275563511   10    6    9    3
 -0.001261817488515698   10    6    9    5
 0.01664435737605539   10    6   10    6
 0.004007712779704097   10    7    7    1
 -0.01076009142541138   10    7    7    4
 -0.0009194141999710395   10    7    8    2
 -0.003247306275563514   10    7    8    3
 0.001261817488515699   10    7    8    5
 -0.004148966097323245   10    7    9    2
 -0.01465385638525315   10    7    9    3
 0.005694101723712887   10    7    9    5
 0.0166443573760554   10    7   10    7
 -0.004582522335384662   10    8    6    2
 -0.02235074240998033   10    8    6    3
 0.008862237834922942   10    8    6    5
 -0.001015490608504931   10    8    7    2
 -0.004952942364337146   10    8    7    3
 0.001963878980405642   10    8    7    5
 0.005116729900065463   10    8    8    1
 -0.01445706882995895   10    8    8    4
 0.0200948792924423   10    8   10    8
 0.001015490608504929   10    9    6    2
 0.00495294236433714   10    9    6    3
 -0.00196387898040564   10    9    6    5
 -0.004582522335384663   10    9    7    2
 -0.02235074240998033   10    9    7    3
 0.008862237834922938   10    9    7    5
 0.005116729900065463   10    9    9    1
 -0.01445706882995895   10    9    9    4
 0.0200948792924423   10    9   10    9
 0.4580174488585347   10   10    1    1
 0.4579471045014571   10   10    2    2
 -0.005539530808643458   10   10    3    2
 0.3580809961107487   10   10    3    3
 0.01016357191463685   10   10    4    1
 0.3119511408156271   10   10    4    4
 -0.01133895199102924   10   10    5    2
 -0.04912901545206989   10   10    5    3
 0.3418564135138015   10   10    5    5
 0.3289408786882559   10   10    6    6
 0.3289408786882559   10   10    7    7
 0.3309496866642577   10   10    8    8
 0.3309496866642576   10   10    9    9
 0.00825311152587274   10   10   10    1
 -0.03415481390525673   10   10   10    4
 0.3987265327322619   10   10   10   10
 -8.716570370970887    1    1  0  0
 -8.717959694518417    2    2  0  0
 0.2520110697124878    3    2  0  0
 -2.735321327238927    3    3  0  0
 -0.272027805193456    4    1  0  0
 -2.466837751917627    4    4  0  0
 0.08916909250519006    5    2  0  0
 0.2079015914122765    5    3  0  0
 -2.480739040543681    5    5  0  0
 -2.457333276111052    6    6  0  0
 -2.457333276111052    7    7  0  0
 -2.439057705042193    8    8  0  0
 -2.439057705042193    9    9  0  0
 0.09570695545973394   10    1  0  0
 0.1675311675599709   10    4  0  0
 -2.596295831993948   10   10  0  0
 3.441802997853659  0  0  0  0
