 &FCI NORB=   8,NELEC=10,MS2=0,
  ORBSYM=1,1,1,1,1,1,1,1,
  ISYM=1,
 &END
 0.7481650700137004    1    1    1    1
 0.5121788409920525    1    1    2    2
 0.6177533790097149    1    1    3    3
 0.6177533790097152    1    1    4    4
 -0.1088749074429587    1    1    5    1
 0.542675058467684    1    1    5    5
 0.5964855161686368    1    1    6    6
 0.5964855161686368    1    1    7    7
 0.07342586842687923    1    1    8    2
 0.7247546828234875    1    1    8    8
 0.05615324978256085    2    1    2    1
 0.09285945255405344    2    1    5    2
 0.006134639301039479    2    1    6    3
 -0.09615927985444302    2    1    6    4
 -0.09615927985444299    2    1    7    3
 -0.006134639301039477    2    1    7    4
 0.05909415198518966    2    1    8    1
 -0.0544817724571386    2    1    8    5
 0.5121788409920526    2    2    1    1
 0.5456431132216339    2    2    2    2
 0.5101683989372533    2    2    3    3
 0.5101683989372535    2    2    4    4
 0.001053367535846715    2    2    5    1
 0.5573787469019157    2    2    5    5
 0.5361164649092356    2    2    6    6
 0.5361164649092356    2    2    7    7
 -0.01990286955044073    2    2    8    2
 0.5597423513590589    2    2    8    8
 0.1051333371957991    3    1    3    1
 0.01388775289130065    3    1    5    3
 0.004717335773696715    3    1    6    2
 -0.07394332226727908    3    1    7    2
 0.003932574529415865    3    1    8    6
 -0.06164234214364953    3    1    8    7
 0.05079666261615413    3    2    3    2
 0.002727420279423614    3    2    6    1
 0.0024933832311576    3    2    6    5
 -0.04275178328501545    3    2    7    1
 -0.03908329799742793    3    2    7    5
 0.02385751675224938    3    2    8    3
 0.6177533790097149    3    3    1    1
 0.5101683989372534    3    3    2    2
 0.5884264015728594    3    3    3    3
 0.5403844733536803    3    3    4    4
 -0.04698882006584571    3    3    5    1
 0.5179470240704481    3    3    5    5
 0.5417948340661163    3    3    6    6
 -0.002908691050178753    3    3    7    6
 0.5872024367584637    3    3    7    7
 0.04163111879951468    3    3    8    2
 0.6203727571770167    3    3    8    8
 0.1051333371957991    4    1    4    1
 0.01388775289130066    4    1    5    4
 -0.07394332226727909    4    1    6    2
 -0.004717335773696714    4    1    7    2
 -0.06164234214364955    4    1    8    6
 -0.003932574529415863    4    1    8    7
 0.05079666261615416    4    2    4    2
 -0.04275178328501547    4    2    6    1
 -0.03908329799742795    4    2    6    5
 -0.002727420279423614    4    2    7    1
 -0.002493383231157599    4    2    7    5
 0.0238575167522494    4    2    8    4
 0.02402096410958962    4    3    4    3
 -0.002908691050178962    4    3    6    6
 0.02270380134617364    4    3    7    6
 0.002908691050178742    4    3    7    7
 0.6177533790097152    4    4    1    1
 0.5101683989372536    4    4    2    2
 0.5403844733536803    4    4    3    3
 0.5884264015728599    4    4    4    4
 -0.04698882006584573    4    4    5    1
 0.5179470240704482    4    4    5    5
 0.587202436758464    4    4    6    6
 0.002908691050178921    4    4    7    6
 0.5417948340661164    4    4    7    7
 0.04163111879951462    4    4    8    2
 0.6203727571770169    4    4    8    8
 -0.1088749074429586    5    1    1    1
 0.001053367535846756    5    1    2    2
 -0.04698882006584569    5    1    3    3
 -0.04698882006584571    5    1    4    4
 0.05149722096951515    5    1    5    1
 -0.01623852005333674    5    1    5    5
 -0.02925362294318579    5    1    6    6
 -0.02925362294318579    5    1    7    7
 -0.02954126951426778    5    1    8    2
 -0.08749981833906957    5    1    8    8
 0.0928594525540534    5    2    2    1
 0.22385638971859    5    2    5    2
 0.01002503230305545    5    2    6    3
 -0.1571404347466682    5    2    6    4
 -0.1571404347466682    5    2    7    3
 -0.01002503230305545    5    2    7    4
 0.05707139073533263    5    2    8    1
 -0.1242896690445231    5    2    8    5
 0.01388775289130065    5    3    3    1
 0.02806995122412667    5    3    5    3
 0.002386677333053785    5    3    6    2
 -0.03741070376419474    5    3    7    2
 -2.254742094618559e-05    5    3    8    6
 0.000353426445201566    5    3    8    7
 0.01388775289130066    5    4    4    1
 0.02806995122412669    5    4    5    4
 -0.03741070376419475    5    4    6    2
 -0.002386677333053785    5    4    7    2
 0.0003534264452015711    5    4    8    6
 2.254742094618548e-05    5    4    8    7
 0.5426750584676842    5    5    1    1
 0.5573787469019155    5    5    2    2
 0.517947024070448    5    5    3    3
 0.5179470240704483    5    5    4    4
 -0.01623852005333675    5    5    5    1
 0.5851463356097666    5    5    5    5
 0.5408062448052181    5    5    6    6
 0.5408062448052182    5    5    7    7
 -0.02755027164849086    5    5    8    2
 0.5943240198606387    5    5    8    8
 0.002727420279423615    6    1    3    2
 -0.04275178328501546    6    1    4    2
 0.04417685551868302    6    1    6    1
 0.02500883222639954    6    1    6    5
 0.002167323565498913    6    1    8    3
 -0.03397237605063849    6    1    8    4
 0.004717335773696716    6    2    3    1
 -0.07394332226727909    6    2    4    1
 0.002386677333053786    6    2    5    3
 -0.03741070376419475    6    2    5    4
 0.08236718235029122    6    2    6    2
 0.0361199887217751    6    2    8    6
 0.006134639301039479    6    3    2    1
 0.01002503230305545    6    3    5    2
 0.01965646376478924    6    3    6    3
 -0.0107041696807617    6    3    6    4
 -0.01070416968076167    6    3    7    3
 0.01829068356951334    6    3    7    4
 0.006505723022244436    6    3    8    1
 -0.005847500230043983    6    3    8    5
 -0.09615927985444302    6    4    2    1
 -0.1571404347466682    6    4    5    2
 -0.01070416968076171    6    4    6    3
 0.1867593549383335    6    4    6    4
 0.1488122076040306    6    4    7    3
 0.01070416968076168    6    4    7    4
 -0.1019759451294053    6    4    8    1
 0.09165843067161948    6    4    8    5
 0.0024933832311576    6    5    3    2
 -0.03908329799742796    6    5    4    2
 0.02500883222639955    6    5    6    1
 0.03823758419691322    6    5    6    5
 0.000286294757312714    6    5    8    3
 -0.004487614729789952    6    5    8    4
 0.5964855161686368    6    6    1    1
 0.5361164649092355    6    6    2    2
 0.5417948340661162    6    6    3    3
 -0.002908691050178957    6    6    4    3
 0.5872024367584638    6    6    4    4
 -0.02925362294318577    6    6    5    1
 0.5408062448052182    6    6    5    5
 0.6050878058226863    6    6    6    6
 0.554920458801019    6    6    7    7
 0.02840692824510993    6    6    8    2
 0.6217522354359564    6    6    8    8
 -0.04275178328501546    7    1    3    2
 -0.002727420279423614    7    1    4    2
 0.04417685551868303    7    1    7    1
 0.02500883222639955    7    1    7    5
 -0.03397237605063849    7    1    8    3
 -0.002167323565498913    7    1    8    4
 -0.07394332226727908    7    2    3    1
 -0.004717335773696714    7    2    4    1
 -0.03741070376419473    7    2    5    3
 -0.002386677333053784    7    2    5    4
 0.08236718235029124    7    2    7    2
 0.03611998872177507    7    2    8    7
 -0.09615927985444297    7    3    2    1
 -0.1571404347466681    7    3    5    2
 -0.01070416968076167    7    3    6    3
 0.1488122076040305    7    3    6    4
 0.1867593549383334    7    3    7    3
 0.01070416968076169    7    3    7    4
 -0.1019759451294053    7    3    8    1
 0.09165843067161948    7    3    8    5
 -0.006134639301039474    7    4    2    1
 -0.01002503230305545    7    4    5    2
 0.01829068356951334    7    4    6    3
 0.01070416968076167    7    4    6    4
 0.01070416968076169    7    4    7    3
 0.01965646376478925    7    4    7    4
 -0.006505723022244431    7    4    8    1
 0.005847500230043988    7    4    8    5
 -0.03908329799742794    7    5    3    2
 -0.0024933832311576    7    5    4    2
 0.02500883222639955    7    5    7    1
 0.03823758419691322    7    5    7    5
 -0.004487614729789959    7    5    8    3
 -0.0002862947573127145    7    5    8    4
 -0.002908691050178753    7    6    3    3
 0.02270380134617364    7    6    4    3
 0.002908691050178923    7    6    4    4
 0.02508367351083334    7    6    7    6
 0.5964855161686367    7    7    1    1
 0.5361164649092356    7    7    2    2
 0.5872024367584637    7    7    3    3
 0.002908691050178746    7    7    4    3
 0.5417948340661165    7    7    4    4
 -0.02925362294318581    7    7    5    1
 0.5408062448052183    7    7    5    5
 0.5549204588010189    7    7    6    6
 0.6050878058226866    7    7    7    7
 0.02840692824510982    7    7    8    2
 0.6217522354359567    7    7    8    8
 0.05909415198518959    8    1    2    1
 0.05707139073533266    8    1    5    2
 0.006505723022244433    8    1    6    3
 -0.1019759451294053    8    1    6    4
 -0.1019759451294053    8    1    7    3
 -0.00650572302224443    8    1    7    4
 0.1066678895412332    8    1    8    1
 -0.05879638178582167    8    1    8    5
 0.07342586842687931    8    2    1    1
 -0.01990286955044081    8    2    2    2
 0.04163111879951466    8    2    3    3
 0.04163111879951468    8    2    4    4
 -0.02954126951426778    8    2    5    1
 -0.02755027164849086    8    2    5    5
 0.02840692824510999    8    2    6    6
 0.02840692824510999    8    2    7    7
 0.0478417411985548    8    2    8    2
 0.04545452672699361    8    2    8    8
 0.0238575167522494    8    3    3    2
 0.002167323565498915    8    3    6    1
 0.0002862947573127146    8    3    6    5
 -0.03397237605063851    8    3    7    1
 -0.004487614729789962    8    3    7    5
 0.03537388430732726    8    3    8    3
 0.02385751675224941    8    4    4    2
 -0.03397237605063851    8    4    6    1
 -0.004487614729789966    8    4    6    5
 -0.002167323565498914    8    4    7    1
 -0.0002862947573127142    8    4    7    5
 0.03537388430732728    8    4    8    4
 -0.05448177245713862    8    5    2    1
 -0.124289669044523    8    5    5    2
 -0.005847500230043986    8    5    6    3
 0.09165843067161951    8    5    6    4
 0.09165843067161951    8    5    7    3
 0.005847500230043984    8    5    7    4
 -0.05879638178582165    8    5    8    1
 0.0915579680850748    8    5    8    5
 0.003932574529415866    8    6    3    1
 -0.06164234214364956    8    6    4    1
 -2.254742094618465e-05    8    6    5    3
 0.0003534264452015489    8    6    5    4
 0.0361199887217751    8    6    6    2
 0.04725061468986975    8    6    8    6
 -0.06164234214364953    8    7    3    1
 -0.003932574529415864    8    7    4    1
 0.0003534264452015467    8    7    5    3
 2.254742094618454e-05    8    7    5    4
 0.0361199887217751    8    7    7    2
 0.04725061468986973    8    7    8    7
 0.724754682823488    8    8    1    1
 0.5597423513590586    8    8    2    2
 0.6203727571770168    8    8    3    3
 0.620372757177017    8    8    4    4
 -0.08749981833906954    8    8    5    1
 0.5943240198606389    8    8    5    5
 0.6217522354359566    8    8    6    6
 0.6217522354359566    8    8    7    7
 0.04545452672699426    8    8    8    2
 0.7604132058621558    8    8    8    8
 -6.45371292902378    1    1  0  0
 -5.066333485605334    2    2  0  0
 -5.325966063256693    3    3  0  0
 -5.325966063256694    4    4  0  0
 0.4315969310244295    5    1  0  0
 -5.065017910258041    5    5  0  0
 -4.952340085220904    6    6  0  0
 -4.952340085220904    7    7  0  0
 -0.2558532827599438    8    2  0  0
 -4.79907968563964    8    8  0  0
 -76.40804375882183  0  0  0  0
