 &FCI NORB=  14,NELEC=14,MS2=0,
  ORBSYM=1,1,1,1,1,1,1,1,1,1,1,1,1,1,
  ISYM=1,
 &END
 0.2663263742407969    1    1    1    1
 -0.04779079942422595    2    1    1    1
 0.114451875672852    2    1    2    1
 0.206961330257744    2    2    1    1
 0.0512486303633119    2    2    2    1
 0.2693192806405375    2    2    2    2
 0.02704500731148328    3    1    1    1
 0.01254220892585767    3    1    2    1
 -0.01584482761928475    3    1    2    2
 0.0867833131808458    3    1    3    1
 0.01887036633116378    3    2    1    1
 -0.05064441922925972    3    2    2    1
 -0.02917511800440162    3    2    2    2
 -0.01268105259206187    3    2    3    1
 0.06435509474095602    3    2    3    2
 0.2249085213807677    3    3    1    1
 -0.02343880901761335    3    3    2    1
 0.1897884650414182    3    3    2    2
 0.01592471206721666    3    3    3    1
 0.01725959894380794    3    3    3    2
 0.2387559806011095    3    3    3    3
 0.02013068775378668    4    1    1    1
 -0.02738445535730834    4    1    2    1
 -0.006528588259175477    4    1    2    2
 0.01699066819623178    4    1    3    1
 -0.03416979989736728    4    1    3    2
 -0.000948373693960443    4    1    3    3
 0.05974187875400987    4    1    4    1
 -0.03977004034211492    4    2    1    1
 -0.003971001592737023    4    2    2    1
 -0.008828341137107764    4    2    2    2
 -0.05226009421010942    4    2    3    1
 -0.01782405516002597    4    2    3    2
 -0.0004325963294484526    4    2    3    3
 0.0123066846532456    4    2    4    1
 0.07547260210057496    4    2    4    2
 0.03143213906513266    4    3    1    1
 -0.07703153414957524    4    3    2    1
 -0.03505784661647884    4    3    2    2
 -0.01161312209823754    4    3    3    1
 0.04600278957097761    4    3    3    2
 0.02348634218547592    4    3    3    3
 0.002951238167690134    4    3    4    1
 -0.003854719633023731    4    3    4    2
 0.086172052172029    4    3    4    3
 0.2003318489052842    4    4    1    1
 0.02421503441035995    4    4    2    1
 0.2185638113618812    4    4    2    2
 0.007980049994759696    4    4    3    1
 -0.01095005434186623    4    4    3    2
 0.2011259284000574    4    4    3    3
 -0.003860100879318055    4    4    4    1
 -0.007303192269615    4    4    4    2
 -0.0231734790433682    4    4    4    3
 0.230575338493102    4    4    4    4
 -0.0264734990354173    5    1    1    1
 0.01290187471131016    5    1    2    1
 -0.03235121616094332    5    1    2    2
 0.01973377481242917    5    1    3    1
 0.0007911404321358814    5    1    3    2
 0.02172223336805024    5    1    3    3
 -0.01090726229107541    5    1    4    1
 0.02050070974677422    5    1    4    2
 -0.0006556390012030415    5    1    4    3
 -4.378426514682291e-05    5    1    4    4
 0.05451700440249239    5    1    5    1
 0.01409699672907897    5    2    1    1
 -0.03975401452541402    5    2    2    1
 -0.02183612658164226    5    2    2    2
 0.002609880852481453    5    2    3    1
 -0.001848334675907516    5    2    3    2
 0.002263764397236023    5    2    3    3
 0.03307727958603799    5    2    4    1
 0.01491530881063972    5    2    4    2
 -0.007041235652726262    5    2    4    3
 -0.001532403313736952    5    2    4    4
 -0.005811670167012025    5    2    5    1
 0.04983730558462111    5    2    5    2
 0.03848503085177463    5    3    1    1
 0.004666849093662357    5    3    2    1
 0.006113945931352119    5    3    2    2
 0.05680232531937349    5    3    3    1
 -0.001630814011874619    5    3    3    2
 0.02204686456516888    5    3    3    3
 0.007071610467261341    5    3    4    1
 -0.04227646531362166    5    3    4    2
 -0.01068124461681926    5    3    4    3
 -0.008781768217291961    5    3    4    4
 0.002287140108433098    5    3    5    1
 0.004071712040233463    5    3    5    2
 0.07314750117221783    5    3    5    3
 -0.02557787622302536    5    4    1    1
 0.0614958237130931    5    4    2    1
 0.03106504702309121    5    4    2    2
 0.007848840802647189    5    4    3    1
 -0.04715160583118617    5    4    3    2
 -0.01945452008917836    5    4    3    3
 0.007828156543528988    5    4    4    1
 0.008565179476019683    5    4    4    2
 -0.06202127247332786    5    4    4    3
 0.01953840376932965    5    4    4    4
 -6.595660739112739e-05    5    4    5    1
 0.001440688423298382    5    4    5    2
 0.004583884831511181    5    4    5    3
 0.07138623527768441    5    4    5    4
 0.2147740810342341    5    5    1    1
 -0.01330746137996639    5    5    2    1
 0.1959430596447574    5    5    2    2
 0.008438404337546713    5    5    3    1
 0.009419833417578558    5    5    3    2
 0.2153619047698135    5    5    3    3
 0.0003754109072271116    5    5    4    1
 -0.005270544603566603    5    5    4    2
 0.01119646473054204    5    5    4    3
 0.2005631254558451    5    5    4    4
 0.004828959220700433    5    5    5    1
 0.002250298584455371    5    5    5    2
 0.01052918791352717    5    5    5    3
 -0.01278378456640041    5    5    5    4
 0.2230161611753164    5    5    5    5
 0.002622649478410811    6    1    1    1
 -0.01214323912546484    6    1    2    1
 -0.003688628209718024    6    1    2    2
 -0.01512459703219469    6    1    3    1
 0.02586259896301101    6    1    3    2
 -0.002134535830612107    6    1    3    3
 -0.01896355360629963    6    1    4    1
 -0.002761987266456033    6    1    4    2
 -0.01637606837283792    6    1    4    3
 0.002263620621178213    6    1    4    4
 -0.009700657196776262    6    1    5    1
 0.02159185384810963    6    1    5    2
 0.003509296451076033    6    1    5    3
 0.001974935512485672    6    1    5    4
 0.0005924692579255505    6    1    5    5
 0.04371018174820651    6    1    6    1
 -0.01274354572501934    6    2    1    1
 -0.005012765844784971    6    2    2    1
 -0.03936849102173563    6    2    2    2
 0.02929407746667547    6    2    3    1
 0.008591460323244635    6    2    3    2
 0.004216981322917166    6    2    3    3
 -0.001945645806568238    6    2    4    1
 -0.005544191817386485    6    2    4    2
 -0.002966108890783807    6    2    4    3
 0.01573769970905138    6    2    4    4
 0.03026657421276914    6    2    5    1
 0.01198829171910183    6    2    5    2
 -0.01070047965703658    6    2    5    3
 0.0007150832106252086    6    2    5    4
 0.001441135853790107    6    2    5    5
 0.003736620662400365    6    2    6    1
 0.05260283450617653    6    2    6    2
 -0.02252699375729485    6    3    1    1
 0.03923039794700831    6    3    2    1
 0.01261599308154884    6    3    2    2
 -0.005692872398942165    6    3    3    1
 0.007262840637129929    6    3    3    2
 -0.004858699460548249    6    3    3    3
 -0.03799163292100549    6    3    4    1
 -0.00797967602325883    6    3    4    2
 -0.00911916124088373    6    3    4    3
 0.003428061508932146    6    3    4    4
 0.01057660482140901    6    3    5    1
 -0.03435037141413958    6    3    5    2
 -0.008500068048438544    6    3    5    3
 -0.01675219294232852    6    3    5    4
 0.0005990516166882882    6    3    5    5
 -0.00504328640062651    6    3    6    1
 -0.002431238597393422    6    3    6    2
 0.05351190852038001    6    3    6    3
 -0.04361241093673091    6    4    1    1
 -0.0031107177436697    6    4    2    1
 -0.01475905456131334    6    4    2    2
 -0.04832252820077067    6    4    3    1
 -0.008719443586928994    6    4    3    2
 -0.01889706778230573    6    4    3    3
 0.003403369922938937    6    4    4    1
 0.05347710388280855    6    4    4    2
 0.0005864760060183635    6    4    4    3
 -0.007891154743185724    6    4    4    4
 0.008304515251090985    6    4    5    1
 0.006497373320539564    6    4    5    2
 -0.05053234219063281    6    4    5    3
 0.008239180402808672    6    4    5    4
 0.002452877403826144    6    4    5    5
 -0.0009360214161526349    6    4    6    1
 0.002846280266263458    6    4    6    2
 -0.004343112157224973    6    4    6    3
 0.06583033313415185    6    4    6    4
 -0.02644002514824822    6    5    1    1
 0.0694851267233927    6    5    2    1
 0.03285713879027089    6    5    2    2
 0.01551711615061145    6    5    3    1
 -0.05272484109959491    6    5    3    2
 -0.01927147946727687    6    5    3    3
 0.009323011935180306    6    5    4    1
 0.006394498510686339    6    5    4    2
 -0.06819500279581031    6    5    4    3
 0.01854320222226155    6    5    4    4
 0.002727675248416933    6    5    5    1
 0.0002575457427240399    6    5    5    2
 0.009553725167246578    6    5    5    3
 0.06126384190435459    6    5    5    4
 -0.01202682328677285    6    5    5    5
 -0.003651812291510276    6    5    6    1
 -0.0008814877738581873    6    5    6    2
 -0.001576015568094782    6    5    6    3
 0.00269795703224529    6    5    6    4
 0.07950430663408571    6    5    6    5
 0.2041711554115689    6    6    1    1
 0.01075297992908318    6    6    2    1
 0.2175166794678048    6    6    2    2
 -0.0037049590252629    6    6    3    1
 -0.006383425392395598    6    6    3    2
 0.202748580463189    6    6    3    3
 -0.00108792642253858    6    6    4    1
 0.0001102237659946353    6    6    4    2
 -0.009459747420475249    6    6    4    3
 0.2093925911168871    6    6    4    4
 -0.005790277901669333    6    6    5    1
 -0.002357904501814258    6    6    5    2
 0.001219202465987084    6    6    5    3
 0.007771954575048054    6    6    5    4
 0.2041988896424228    6    6    5    5
 0.001019746952844939    6    6    6    1
 -0.007821278808999896    6    6    6    2
 0.001525080124684274    6    6    6    3
 -0.002733612405987274    6    6    6    4
 0.009207889393631572    6    6    6    5
 0.219809509622221    6    6    6    6
 0.003677478205598194    7    1    1    1
 -0.001839256265533963    7    1    2    1
 -0.004373840948618774    7    1    2    2
 0.01506380361463515    7    1    3    1
 -0.005078507508765223    7    1    3    2
 -0.0177342144683347    7    1    3    3
 0.01040651059042505    7    1    4    1
 -0.02294909985979139    7    1    4    2
 0.003499770407441176    7    1    4    3
 0.01724031602990406    7    1    4    4
 -0.01383877321791426    7    1    5    1
 -0.0007438823794757955    7    1    5    2
 -0.02092991219312357    7    1    5    3
 -0.001405377980650639    7    1    5    4
 -0.004786920033275252    7    1    5    5
 -0.0110645636326175    7    1    6    1
 0.02358632317850782    7    1    6    2
 0.0001915302960301981    7    1    6    3
 -0.002795504896249113    7    1    6    4
 -0.0001419523171760751    7    1    6    5
 -0.002570267742064012    7    1    6    6
 0.04470542652765555    7    1    7    1
 -0.001466108643098676    7    2    1    1
 -0.003811054235409407    7    2    2    1
 -0.006540465161988979    7    2    2    2
 -0.005765253555072927    7    2    3    1
 0.02716310087440016    7    2    3    2
 -0.001013440867530968    7    2    3    3
 -0.02632001147260656    7    2    4    1
 -0.01254614617330122    7    2    4    2
 -0.005159767945369366    7    2    4    3
 0.007424556484515916    7    2    4    4
 -0.001369393385034561    7    2    5    1
 0.003119850674473021    7    2    5    2
 -0.001019383068857193    7    2    5    3
 0.01256001762263968    7    2    5    4
 -0.001130218191329766    7    2    5    5
 0.03040229603262979    7    2    6    1
 0.01397295913946213    7    2    6    2
 -0.009890426839650735    7    2    6    3
 -0.0005764231609210234    7    2    6    4
 -0.005245415503845258    7    2    6    5
 -0.0009902060654460156    7    2    6    6
 -0.001332617142233088    7    2    7    1
 0.04150737687805946    7    2    7    2
 0.02151378603719043    7    3    1    1
 -0.008297094275101691    7    3    2    1
 0.03457198227491706    7    3    2    2
 -0.02655296364902067    7    3    3    1
 -0.0006194641457225845    7    3    3    2
 -0.008259019137913057    7    3    3    3
 0.005046047970158561    7    3    4    1
 -0.005724953707454387    7    3    4    2
 0.004220445216578081    7    3    4    3
 0.006650291825986093    7    3    4    4
 -0.03955174120336603    7    3    5    1
 -0.0002920741825726741    7    3    5    2
 -0.009034903791348225    7    3    5    3
 0.001758332588112024    7    3    5    4
 -0.01582473013171072    7    3    5    5
 0.00478856989173319    7    3    6    1
 -0.02775940117821577    7    3    6    2
 -0.009320347902463515    7    3    6    3
 -0.01608221956169757    7    3    6    4
 -0.00217402283470588    7    3    6    5
 0.008443343566886218    7    3    6    6
 0.006213204988190611    7    3    7    1
 0.001067051471909288    7    3    7    2
 0.04980794753571903    7    3    7    3
 0.01750838646183748    7    4    1    1
 -0.04237082352145219    7    4    2    1
 -0.0207747280135378    7    4    2    2
 0.00530519969212538    7    4    3    1
 -0.007125685457757147    7    4    3    2
 0.005041251468935645    7    4    3    3
 0.03997323306216805    7    4    4    1
 0.01442679437091721    7    4    4    2
 0.01123341168434633    7    4    4    3
 -0.007938530118118223    7    4    4    4
 -0.004795855241727207    7    4    5    1
 0.03690767522712904    7    4    5    2
 0.004259291489734377    7    4    5    3
 -1.043781759855166e-05    7    4    5    4
 0.002447120265905739    7    4    5    5
 0.0008653608168294472    7    4    6    1
 0.004406430104668014    7    4    6    2
 -0.04018840177042652    7    4    6    3
 0.009705114849497286    7    4    6    4
 0.009886703763429575    7    4    6    5
 -0.002124546527942177    7    4    6    6
 0.000931667023002748    7    4    7    1
 -0.00673666468138787    7    4    7    2
 0.0009591100690420252    7    4    7    3
 0.05228182078621342    7    4    7    4
 -0.03947304844125439    7    5    1    1
 -0.003688363792963895    7    5    2    1
 -0.002883109270966232    7    5    2    2
 -0.06180290417981437    7    5    3    1
 -0.0013547875320646    7    5    3    2
 -0.02239267578419312    7    5    3    3
 -0.005394987527070074    7    5    4    1
 0.04870197377729127    7    5    4    2
 0.005889509816451969    7    5    4    3
 -0.006636270005337774    7    5    4    4
 -0.004932456715272624    7    5    5    1
 -0.001185857954525182    7    5    5    2
 -0.05676383477562579    7    5    5    3
 0.0008826628958462138    7    5    5    4
 -0.01201088882498089    7    5    5    5
 0.001702168537810007    7    5    6    1
 -0.008510124189182297    7    5    6    2
 0.002679064653382942    7    5    6    3
 0.05058693744672057    7    5    6    4
 -0.007274585547244927    7    5    6    5
 0.008827207633108526    7    5    6    6
 -0.001350566747240586    7    5    7    1
 0.0001551926376728002    7    5    7    2
 0.01083007596759328    7    5    7    3
 -0.001987802308093679    7    5    7    4
 0.06741398589521384    7    5    7    5
 -0.0339607048829242    7    6    1    1
 0.08113305356160756    7    6    2    1
 0.0398898822562956    7    6    2    2
 0.008500111889811292    7    6    3    1
 -0.05211558143980279    7    6    3    2
 -0.0230605258895128    7    6    3    3
 -0.001281398998296987    7    6    4    1
 0.006073666061100844    7    6    4    2
 -0.07008342435563221    7    6    4    3
 0.02110161643401795    7    6    4    4
 0.002470165807588585    7    6    5    1
 -0.01139355664528211    7    6    5    2
 0.002740733819582043    7    6    5    3
 0.0630867494861547    7    6    5    4
 -0.01345367048762695    7    6    5    5
 -0.00498173597849695    7    6    6    1
 -0.0032991526878683    7    6    6    2
 0.009398886833978423    7    6    6    3
 0.003899646331082695    7    6    6    4
 0.06837055594732573    7    6    6    5
 0.01047043268366273    7    6    6    6
 0.0003725765684343477    7    6    7    1
 -0.002156675415226864    7    6    7    2
 -0.0009289156260767935    7    6    7    3
 -0.01433127137555437    7    6    7    4
 3.65390558062066e-05    7    6    7    5
 0.08212285857126299    7    6    7    6
 0.2295070157219347    7    7    1    1
 -0.003324646774387452    7    7    2    1
 0.2117944418194336    7    7    2    2
 0.02307664397996255    7    7    3    1
 0.004024214412016962    7    7    3    2
 0.2183479156100331    7    7    3    3
 0.00193034499820093    7    7    4    1
 -0.02332121666245653    7    7    4    2
 0.001891457738653475    7    7    4    3
 0.2091358653558296    7    7    4    4
 -0.003791476033262286    7    7    5    1
 2.916702609222538e-06    7    7    5    2
 0.02678662041660902    7    7    5    3
 -0.004596363918728807    7    7    5    4
 0.2131498733269326    7    7    5    5
 0.0006114603462157729    7    7    6    1
 -0.003044478561679078    7    7    6    2
 -0.001721478636455157    7    7    6    3
 -0.02722943072181466    7    7    6    4
 -0.001471993445443727    7    7    6    5
 0.2092022713633274    7    7    6    6
 -0.001643307016444604    7    7    7    1
 -0.0004675022182059587    7    7    7    2
 0.003273888696852894    7    7    7    3
 0.0004321700664199054    7    7    7    4
 -0.02865587505940038    7    7    7    5
 -0.005035597958157722    7    7    7    6
 0.2312326281600589    7    7    7    7
 -0.001313248386874851    8    1    1    1
 0.003718359484806101    8    1    2    1
 0.0002643523556097069    8    1    2    2
 0.00111800219494751    8    1    3    1
 0.003888515448123878    8    1    3    2
 0.01034205397296495    8    1    3    3
 -0.008717819270194617    8    1    4    1
 -0.0001560679859103903    8    1    4    2
 0.01715508230048227    8    1    4    3
 -0.00103124426971415    8    1    4    4
 0.01162574847572539    8    1    5    1
 -0.01958387062778158    8    1    5    2
 0.001898123970435214    8    1    5    3
 0.0140689847639672    8    1    5    4
 -0.003159187379027155    8    1    5    5
 -0.01218073733681235    8    1    6    1
 -0.00083650412624928    8    1    6    2
 -0.01366631041833163    8    1    6    3
 1.0148499457495e-05    8    1    6    4
 -0.001894550086252679    8    1    6    5
 -0.000117705510803289    8    1    6    6
 -0.007060956696082201    8    1    7    1
 0.01457384416971522    8    1    7    2
 0.001277429974991379    8    1    7    3
 -0.002958819975418021    8    1    7    4
 0.001063186274521164    8    1    7    5
 0.0003224037578841896    8    1    7    6
 -0.0003827532409926492    8    1    7    7
 0.03992238280390193    8    1    8    1
 0.003407241030020125    8    2    1    1
 0.0005594230055149764    8    2    2    1
 0.003224582758385958    8    2    2    2
 0.004009569050641654    8    2    3    1
 0.001967720432771719    8    2    3    2
 -0.02107582306343315    8    2    3    3
 -0.0004767480897150323    8    2    4    1
 -0.02460478923204957    8    2    4    2
 0.002710393589799424    8    2    4    3
 -0.0008718969973897867    8    2    4    4
 -0.02225468617925148    8    2    5    1
 -0.00649778448990997    8    2    5    2
 -0.004374267377069118    8    2    5    3
 0.003211796017755949    8    2    5    4
 0.007067751371986253    8    2    5    5
 -0.0008181254447202579    8    2    6    1
 -9.617729562959929e-05    8    2    6    2
 -0.001433621084288882    8    2    6    3
 0.009093587290574415    8    2    6    4
 -0.0003810537309086239    8    2    6    5
 -0.002378449317164826    8    2    6    6
 0.02131064635640402    8    2    7    1
 0.007685904737167006    8    2    7    2
 -0.002776561053199678    8    2    7    3
 -0.001309442405231404    8    2    7    4
 -0.001336124380228141    8    2    7    5
 0.0004639684030345524    8    2    7    6
 -0.001529384861226533    8    2    7    7
 -0.001175562389674628    8    2    8    1
 0.03658363245312495    8    2    8    2
 0.00106557727309104    8    3    1    1
 0.005437884050464979    8    3    2    1
 0.002053323396627178    8    3    2    2
 0.01473324339096723    8    3    3    1
 -0.02675470959336448    8    3    3    2
 -0.0008674288755994979    8    3    3    3
 0.0256918054926296    8    3    4    1
 0.004228445648563613    8    3    4    2
 0.004960184100689806    8    3    4    3
 -0.002029535227442837    8    3    4    4
 0.003330526943125685    8    3    5    1
 -0.00459882547492351    8    3    5    2
 0.002280566054404669    8    3    5    3
 0.006630414255807216    8    3    5    4
 0.0009483847283247925    8    3    5    5
 -0.02839885026761651    8    3    6    1
 -0.002738705291644452    8    3    6    2
 -0.00661744040780504    8    3    6    3
 0.001392274045885417    8    3    6    4
 -0.008346366584433712    8    3    6    5
 -0.0008783082836872724    8    3    6    6
 0.006905513492455797    8    3    7    1
 -0.02023483301901774    8    3    7    2
 -0.004539519585035761    8    3    7    3
 -0.007385559070175384    8    3    7    4
 3.634323499098776e-05    8    3    7    5
 0.005022182135122237    8    3    7    6
 -0.001273983722705069    8    3    7    7
 0.00555298161264694    8    3    8    1
 0.00112820181452795    8    3    8    2
 0.04238712541476301    8    3    8    3
 -0.01327906889322577    8    4    1    1
 -0.0007533984509389557    8    4    2    1
 -0.03689153847566031    8    4    2    2
 0.03081667345736066    8    4    3    1
 0.004615077743425678    8    4    3    2
 0.005953283992661671    8    4    3    3
 -0.001222157395748716    8    4    4    1
 -0.003476335545637619    8    4    4    2
 -0.001511562238383293    8    4    4    3
 -0.004310567543075886    8    4    4    4
 0.03136743564528791    8    4    5    1
 0.006028603807217234    8    4    5    2
 0.01040436564881529    8    4    5    3
 -0.002889690559780412    8    4    5    4
 0.001785134206205032    8    4    5    5
 -0.001143140408876174    8    4    6    1
 0.03019775789739199    8    4    6    2
 0.001444263072819614    8    4    6    3
 -0.001228380031338811    8    4    6    4
 0.001404826093088122    8    4    6    5
 0.002590876596330779    8    4    6    6
 0.001061033660238448    8    4    7    1
 0.002474128932061307    8    4    7    2
 -0.03032176161076053    8    4    7    3
 0.004963516076382907    8    4    7    4
 -0.001796437324316169    8    4    7    5
 -0.00212358642969663    8    4    7    6
 -0.003098895686956266    8    4    7    7
 0.0006740110983176722    8    4    8    1
 -0.00584153096611984    8    4    8    2
 0.0006955829308284392    8    4    8    3
 0.04276866937721315    8    4    8    4
 0.0233631484880539    8    5    1    1
 -0.04211015056771904    8    5    2    1
 -0.01364912815812406    8    5    2    2
 0.004489714664476108    8    5    3    1
 -0.006013884714647723    8    5    3    2
 0.004732374269717237    8    5    3    3
 0.0384631765306369    8    5    4    1
 0.008037967666306716    8    5    4    2
 0.0140430074511587    8    5    4    3
 -0.005131970443658617    8    5    4    4
 -0.0111938556388063    8    5    5    1
 0.03214218830273958    8    5    5    2
 0.004513661189226911    8    5    5    3
 0.0002531296284455672    8    5    5    4
 0.002299039488975321    8    5    5    5
 -4.010706024623147e-05    8    5    6    1
 0.0008598937145229037    8    5    6    2
 -0.03875972222909365    8    5    6    3
 0.003496716452760125    8    5    6    4
 -0.004558033211598953    8    5    6    5
 -0.001899419454090978    8    5    6    6
 0.003628895352599949    8    5    7    1
 -0.003796043479268671    8    5    7    2
 0.007075009482581152    8    5    7    3
 0.03476460253073574    8    5    7    4
 -0.002947462462534357    8    5    7    5
 -0.002399035404569896    8    5    7    6
 0.0007191337185641481    8    5    7    7
 -0.0009229352206931594    8    5    8    1
 0.0003468919868391214    8    5    8    2
 0.00842354096222195    8    5    8    3
 -0.001956277766754089    8    5    8    4
 0.05016282596401757    8    5    8    5
 -0.03691472020483842    8    6    1    1
 -0.00197704965898612    8    6    2    1
 -0.005816176715354237    8    6    2    2
 -0.05032161965628348    8    6    3    1
 -0.004638496461440004    8    6    3    2
 -0.01958341048614496    8    6    3    3
 -0.00157070997777522    8    6    4    1
 0.0445714245013989    8    6    4    2
 0.002463203049372085    8    6    4    3
 -0.00696097066473591    8    6    4    4
 -0.0006609709846323358    8    6    5    1
 0.001272004757651353    8    6    5    2
 -0.04715145154216845    8    6    5    3
 0.003584551954325913    8    6    5    4
 -0.01037098112431444    8    6    5    5
 0.000409647883175232    8    6    6    1
 -0.004910477002402957    8    6    6    2
 0.0004247226614207659    8    6    6    3
 0.04493689471812178    8    6    6    4
 -0.00201415767615299    8    6    6    5
 -0.002034606037966574    8    6    6    6
 -0.001826846718379918    8    6    7    1
 -0.0009430900051811393    8    6    7    2
 0.004655523936267899    8    6    7    3
 0.00114195750671816    8    6    7    4
 0.04667999512225179    8    6    7    5
 0.002874934848470062    8    6    7    6
 -0.0155720679654196    8    6    7    7
 0.0002576473295706526    8    6    8    1
 -0.001267240392420059    8    6    8    2
 -0.0006394244856626391    8    6    8    3
 -0.009456663418076078    8    6    8    4
 -0.000224579216901273    8    6    8    5
 0.05281144541732909    8    6    8    6
 -0.02355749451703515    8    7    1    1
 0.06159092548966016    8    7    2    1
 0.02794287778154527    8    7    2    2
 0.01268821345594181    8    7    3    1
 -0.03829026414875147    8    7    3    2
 -0.01441047555187343    8    7    3    3
 -0.001346023110603848    8    7    4    1
 0.001623864855057659    8    7    4    2
 -0.05480896262224778    8    7    4    3
 0.01547778584738291    8    7    4    4
 0.004900499147101237    8    7    5    1
 -0.006736617960665135    8    7    5    2
 0.008462003823337035    8    7    5    3
 0.04628780335038738    8    7    5    4
 -0.008126423950221191    8    7    5    5
 -0.0020741955741367    8    7    6    1
 -0.0005212720005962775    8    7    6    2
 0.007596075497436168    8    7    6    3
 -0.0006913258191704837    8    7    6    4
 0.05290368593879678    8    7    6    5
 0.006926942385955277    8    7    6    6
 -0.001693931094231187    8    7    7    1
 -0.001756092213886276    8    7    7    2
 -0.004458490136726704    8    7    7    3
 -0.008062294845586739    8    7    7    4
 -0.005878506368149795    8    7    7    5
 0.05211069250153173    8    7    7    6
 -0.000993486395180635    8    7    7    7
 -0.001453072261583618    8    7    8    1
 -0.0007090779958526292    8    7    8    2
 0.0008542155585000621    8    7    8    3
 0.001225879844197661    8    7    8    4
 -0.01323748807220199    8    7    8    5
 -0.003309379487887629    8    7    8    6
 0.05938234564633308    8    7    8    7
 0.2309275136203083    8    8    1    1
 -0.003776284167147142    8    8    2    1
 0.2130740383330301    8    8    2    2
 0.02263434065498058    8    8    3    1
 0.004199664013179936    8    8    3    2
 0.2195247748516122    8    8    3    3
 0.002015840494884134    8    8    4    1
 -0.02312274549895487    8    8    4    2
 0.002353109770167957    8    8    4    3
 0.210083518060477    8    8    4    4
 -0.004002104759716752    8    8    5    1
 1.284222917928729e-05    8    8    5    2
 0.02645815652914655    8    8    5    3
 -0.004787032738121812    8    8    5    4
 0.2140072208269923    8    8    5    5
 0.0005384674790058663    8    8    6    1
 -0.003257278905086878    8    8    6    2
 -0.001944005815342724    8    8    6    3
 -0.02680902100632902    8    8    6    4
 -0.001976229766366413    8    8    6    5
 0.2093951770368219    8    8    6    6
 -0.001716518581882703    8    8    7    1
 -0.0004692784867368127    8    8    7    2
 0.003353072121368327    8    8    7    3
 0.0004817919611172178    8    8    7    4
 -0.02792575229068473    8    8    7    5
 -0.005225286961552268    8    8    7    6
 0.2267335918353767    8    8    7    7
 -9.489719943254261e-05    8    8    8    1
 -0.001405589515379414    8    8    8    2
 -0.0008075542528758329    8    8    8    3
 -0.003121537122134695    8    8    8    4
 0.001515916332819131    8    8    8    5
 -0.02003474060498294    8    8    8    6
 -0.001399262240468768    8    8    8    7
 0.2333438985892872    8    8    8    8
 0.000496766443049849    9    1    1    1
 0.000237539028655428    9    1    2    1
 0.002160857584038828    9    1    2    2
 -0.001564860503289421    9    1    3    1
 0.0003153817982067447    9    1    3    2
 -0.01023157642715927    9    1    3    3
 -3.674259340771337e-05    9    1    4    1
 -0.006540336002410988    9    1    4    2
 -0.004216167683450669    9    1    4    3
 -0.01469639011889229    9    1    4    4
 -0.01167710129004285    9    1    5    1
 0.001230805976318187    9    1    5    2
 0.01242217965807375    9    1    5    3
 -0.0007084505959462147    9    1    5    4
 0.01245216306184472    9    1    5    5
 0.006158461362209466    9    1    6    1
 -0.0148134397564807    9    1    6    2
 0.001798563960499424    9    1    6    3
 0.01140342578923039    9    1    6    4
 -0.0007983013014797799    9    1    6    5
 -0.0003835590297342334    9    1    6    6
 -0.008671659064251439    9    1    7    1
 -0.0005174617333998445    9    1    7    2
 -0.01219593339938366    9    1    7    3
 -0.0002928265403733259    9    1    7    4
 -0.0012007711194936    9    1    7    5
 5.365307630224567e-05    9    1    7    6
 -0.0006891859000710664    9    1    7    7
 -0.008957852823946707    9    1    8    1
 0.02027158471973254    9    1    8    2
 0.001000873970473981    9    1    8    3
 -0.001954849626333372    9    1    8    4
 1.988163296499182e-05    9    1    8    5
 -0.001436998266700618    9    1    8    6
 0.000831516212295928    9    1    8    7
 -0.0003850338236102222    9    1    8    8
 0.02987179437446427    9    1    9    1
 -7.220330106007987e-05    9    2    1    1
 0.002249691150507367    9    2    2    1
 0.001492360378555268    9    2    2    2
 0.0002030466278224844    9    2    3    1
 0.004269304948813257    9    2    3    2
 0.001166450130765229    9    2    3    3
 -0.007326206678568875    9    2    4    1
 -0.007181487814720923    9    2    4    2