 &FCI NORB=   6,NELEC= 6,MS2=0,
  ORBSYM=1,1,1,1,1,1,
  ISYM=1,
 &END
 0.05564205795712987    1    1    1    1
 -0.0001241801595069134    2    1    1    1
 0.0006093638247715979    2    1    2    1
 0.0552331386265171    2    2    1    1
 0.0001945079303865059    2    2    2    1
 0.05500278006627726    2    2    2    2
 -0.0003325317839864123    3    1    1    1
 -7.152279142630215e-05    3    1    2    1
 -0.0003580403888697736    3    1    2    2
 2.029878904311335e-05    3    1    3    1
 -0.000185172495719929    3    2    1    1
 0.0006218493805283043    3    2    2    1
 0.0001420652410951291    3    2    2    2
 -7.097669701687665e-05    3    2    3    1
 0.0006350136855847051    3    2    3    2
 0.05534734335250742    3    3    1    1
 -2.583163118077399e-05    3    3    2    1
 0.05499947344447798    3    3    2    2
 -0.0003344570009884241    3    3    3    1
 -8.318730680406238e-05    3    3    3    2
 0.05507628047621355    3    3    3    3
 -2.688627063268544e-05    4    1    1    1
 -3.930125696068236e-05    4    1    2    1
 -4.627005252460488e-05    4    1    2    2
 5.794873570527798e-06    4    1    3    1
 -4.000306679386046e-05    4    1    3    2
 -3.226982582292404e-05    4    1    3    3
 2.763845013263495e-06    4    1    4    1
 0.0003838350308535455    4    2    1    1
 -1.058906551125954e-05    4    2    2    1
 0.0003653068294458763    4    2    2    2
 -1.175331356221994e-05    4    2    3    1
 -1.30225253401615e-05    4    2    3    2
 0.0003716262219214269    4    2    3    3
 -5.839754063062997e-07    4    2    4    1
 1.437893216097194e-05    4    2    4    2
 0.0001006867796189714    4    3    1    1
 -0.0005706641692638458    4    3    2    1
 -0.0001972423551431416    4    3    2    2
 6.751055672811449e-05    4    3    3    1
 -0.0005823556010481674    4    3    3    2
 9.016646194765973e-06    4    3    3    3
 3.696042278485079e-05    4    3    4    1
 9.359535600335374e-06    4    3    4    2
 0.0005345400000760206    4    3    4    3
 0.05533754256949043    4    4    1    1
 -2.014232785486871e-05    4    4    2    1
 0.05499312864181681    4    4    2    2
 -0.0003346460299797359    4    4    3    1
 -7.730002903128784e-05    4    4    3    2
 0.0550677898527367    4    4    3    3
 -3.258979277215885e-05    4    4    4    1
 0.00037100511760865    4    4    4    2
 3.709547791692082e-06    4    4    4    3
 0.05505937551093317    4    4    4    4
 9.477961808962989e-05    5    1    1    1
 -1.216505600924544e-06    5    1    2    1
 9.100084759284074e-05    5    1    2    2
 -3.002466635923154e-06    5    1    3    1
 -1.769375277206433e-06    5    1    3    2
 9.204187766563335e-05    5    1    3    3
 -2.380871201060113e-07    5    1    4    1
 3.455390235827824e-06    5    1    4    2
 9.953928035180056e-07    5    1    4    3
 9.190462780089874e-05    5    1    4    4
 8.348851731226216e-07    5    1    5    1
 6.457025149898985e-05    5    2    1    1
 -9.929928711925574e-05    5    2    2    1
 1.11399181954171e-05    5    2    2    2
 1.016957884869636e-05    5    2    3    1
 -0.0001017068891271377    5    2    3    2
 4.734956420988494e-05    5    2    3    3
 6.398382070234522e-06    5    2    4    1
 3.377694124917043e-06    5    2    4    2
 9.305667423630374e-05    5    2    4    3
 4.636248653023459e-05    5    2    4    4
 5.859477519260534e-07    5    2    5    1
 1.6546299324841e-05    5    2    5    2
 0.0003879110444462739    5    3    1    1
 -7.766633662512757e-06    5    3    2    1
 0.0003707669856499578    5    3    2    2
 -1.217769388633395e-05    5    3    3    1
 -1.015380316226122e-05    5    3    3    2
 0.0003760837175713681    5    3    3    3
 -7.801357518846738e-07    5    3    4    1
 1.443090809943303e-05    5    3    4    2
 6.707762180025984e-06    5    3    4    3
 0.0003754863916663954    5    3    4    4
 3.474942887036407e-06    5    3    5    1
 2.923446540695506e-06    5    3    5    2
 1.449728234569868e-05    5    3    5    3
 -0.0001782212138784928    5    4    1    1
 0.0006299828163504293    5    4    2    1
 0.0001529603865706079    5    4    2    2
 -7.224293943989661e-05    5    4    3    1
 0.0006432765984896565    5    4    3    2
 -7.517618787959659e-05    5    4    3    3
 -4.057644775186855e-05    5    4    4    1
 -1.282756481709104e-05    5    4    4    2
 -0.0005900029234961259    5    4    4    3
 -6.922574103103358e-05    5    4    4    4
 -1.702729962121152e-06    5    4    5    1
 -0.000103016100333853    5    4    5    2
 -9.918053971033567e-06    5    4    5    3
 0.0006516593145433427    5    4    5    4
 0.05523533245963037    5    5    1    1
 0.0001531298465869692    5    5    2    1
 0.05498408190452821    5    5    2    2
 -0.000352441834274727    5    5    3    1
 9.997115504900969e-05    5    5    3    2
 0.05499560307404769    5    5    3    3
 -4.353506645518462e-05    5    5    4    1
 0.0003652159042012103    5    5    4    2
 -0.0001584656738824236    5    5    4    3
 0.05498891312690701    5    5    4    4
 9.08893592811872e-05    5    5    5    1
 1.778218447999992e-05    5    5    5    2
 0.0003704822439079814    5    5    5    3
 0.0001102949255047189    5    5    5    4
 0.05496827296484287    5    5    5    5
 -2.447187031661397e-06    6    1    1    1
 -2.703218537893956e-05    6    1    2    1
 -1.633023214826362e-05    6    1    2    2
 3.430470769004265e-06    6    1    3    1
 -2.756913138659437e-05    6    1    3    2
 -6.600620795036568e-06    6    1    3    3
 1.799931429846187e-06    6    1    4    1
 1.948087793404075e-07    6    1    4    2
 2.535521661874989e-05    6    1    4    3
 -6.842838455981657e-06    6    1    4    4
 -1.544259215759e-08    6    1    5    1
 4.41196104783683e-06    6    1    5    2
 6.619571092455367e-08    6    1    5    3
 -2.794160782295498e-05    6    1    5    4
 -1.448072847529013e-05    6    1    5    5
 1.213328972756874e-06    6    1    6    1
 9.583422225852878e-05    6    2    1    1
 -3.419432661557784e-06    6    2    2    1
 9.090848806260421e-05    6    2    2    2
 -2.73856729373928e-06    6    2    3    1
 -4.020487169780226e-06    6    2    3    2
 9.274601659534737e-05    6    2    3    3
 -9.089898018107488e-08    6    2    4    1
 3.488957796027439e-06    6    2    4    2
 3.062866390173236e-06    6    2    4    3
 9.25888676536333e-05    6    2    4    4
 8.378484176398139e-07    6    2    5    1
 9.501572176913231e-07    6    2    5    2
 3.49822125998402e-06    6    2    5    3
 -3.984157165728114e-06    6    2    5    4
 9.094799861789402e-05    6    2    5    5
 8.364940115788657e-08    6    2    6    1
 8.490293640522498e-07    6    2    6    2
 -1.850135230666043e-05    6    3    1    1
 -3.830351394325405e-05    6    3    2    1
 -3.765025226205347e-05    6    3    2    2
 5.390759565800009e-06    6    3    3    1
 -3.903486576323359e-05    6    3    3    2
 -2.395551125462028e-05    6    3    3    3
 2.672734272898791e-06    6    3    4    1
 -2.875769838899244e-07    6    3    4    2
 3.601484550431387e-05    6    3    4    3
 -2.42775637405978e-05    6    3    4    4
 -1.642798930971726e-07    6    3    5    1
 6.273837006707045e-06    6    3    5    2
 -4.76899393116523e-07    6    3    5    3
 -3.958768354587352e-05    6    3    5    4
 -3.500056982024227e-05    6    3    5    5
 1.749940201154424e-06    6    3    6    1
 -2.073613321440106e-08    6    3    6    2
 2.590215204282205e-06    6    3    6    3
 -0.0003412814507249768    6    4    1    1
 -5.193673167471165e-05    6    4    2    1
 -0.0003564608777076873    6    4    2    2
 1.808652125146937e-05    6    4    3    1
 -5.097487883330417e-05    6    4    3    2
 -0.000339976577441856    6    4    3    3
 4.54052174449635e-06    6    4    4    1
 -1.218889949187202e-05    6    4    4    2
 4.917242860119296e-05    6    4    4    3
 -0.0003399802642145101    6    4    4    4
 -3.065181191134593e-06    6    4    5    1
 6.967060010975537e-06    6    4    5    2
 -1.252366260974604e-05    6    4    5    3
 -5.198190848620819e-05    6    4    5    4
 -0.0003521898135535489    6    4    5    5
 2.563640185399738e-06    6    4    6    1
 -2.87220048093059e-06    6    4    6    2
 4.166346181055199e-06    6    4    6    3
 1.650496366319654e-05    6    4    6    4
 -0.0001306595656877652    6    5    1    1
 0.0006102352057774823    6    5    2    1
 0.0001887179476995514    6    5    2    2
 -7.139472307825614e-05    6    5    3    1
 0.0006228069554123293    6    5    3    2
 -3.198535166882803e-05    6    5    3    3
 -3.936854170374636e-05    6    5    4    1
 -1.086282859480997e-05    6    5    4    2
 -0.0005715013853735476    6    5    4    3
 -2.627827195899922e-05    6    5    4    4
 -1.277804708237141e-06    6    5    5    1
 -9.951299820537143e-05    6    5    5    2
 -8.036600834653492e-06    6    5    5    3
 0.0006309517943260549    6    5    5    4
 0.0001472980876142415    6    5    5    5
 -2.707522775735382e-05    6    5    6    1
 -3.485135117273712e-06    6    5    6    2
 -3.837539274772269e-05    6    5    6    3
 -5.177915269922003e-05    6    5    6    4
 0.0006111233964096749    6    5    6    5
 0.05562628120627283    6    6    1    1
 -9.308164767832999e-05    6    6    2    1
 0.05523480145944278    6    6    2    2
 -0.0003350143750564602    6    6    3    1
 -0.0001532426067494157    6    6    3    2
 0.05533755134300249    6    6    3    3
 -2.877247981103605e-05    6    6    4    1
 0.0003820239901309818    6    6    4    2
 7.161902581150574e-05    6    6    4    3
 0.05532810500437929    6    6    4    4
 9.441228710824578e-05    6    6    5    1
 5.936392262728537e-05    6    6    5    2
 0.0003862399576228876    6    6    5    3
 -0.0001459088982483196    6    6    5    4
 0.05523500572836738    6    6    5    5
 -3.800775164034183e-06    6    6    6    1
 9.535728695799849e-05    6    6    6    2
 -2.03640723233384e-05    6    6    6    3
 -0.0003427607967906335    6    6    6    4
 -9.949425240260348e-05    6    6    6    5
 0.05561228212432059    6    6    6    6
 -2.192258908035302    1    1  0  0
 0.005917952953690977    2    1  0  0
 -1.992940510918315    2    2  0  0
 0.1326000855765179    3    1  0  0
 0.01890668793886697    3    2  0  0
 -1.86004704338017    3    3  0  0
 0.02970253786725998    4    1  0  0
 -0.1902195940841727    4    2  0  0
 0.008154400162067558    4    3  0  0
 -1.656663434525604    4    4  0  0
 -0.07479895803113616    5    1  0  0
 -0.01647506452183107    5    2  0  0
 -0.1538769470899264    5    3  0  0
 0.01703738184619626    5    4  0  0
 -1.351003147888429    5    5  0  0
 0.006702114552496472    6    1  0  0
 -0.0521195725505627    6    2  0  0
 0.01813699991453025    6    3  0  0
 0.1425736808227068    6    4  0  0
 0.003922174984293929    6    5  0  0
 -1.222591010122219    6    6  0  0
 4.413966092937137  0  0  0  0
