 &FCI NORB=  16,NELEC=16,MS2=0,
  ORBSYM=1,1,1,1,1,1,1,1,1,1,1,1,1,1,1,1,
  ISYM=1,
 &END
 0.2397669433045348    1    1    1    1
 -0.04107224339722554    2    1    1    1
 0.1170405666292959    2    1    2    1
 0.1976381281348322    2    2    1    1
 0.04494804127315347    2    2    2    1
 0.2455280704790004    2    2    2    2
 0.02285397810809348    3    1    1    1
 0.008620622500733041    3    1    2    1
 -0.01590558410563751    3    1    2    2
 0.08175386123425951    3    1    3    1
 0.01285340133229424    3    2    1    1
 -0.04631850662007299    3    2    2    1
 -0.02266265453208805    3    2    2    2
 -0.0138096183746486    3    2    3    1
 0.0599716494907383    3    2    3    2
 0.2051563971727955    3    3    1    1
 -0.02454462648271702    3    3    2    1
 0.1745234816634274    3    3    2    2
 0.01541618712013676    3    3    3    1
 0.01484308317065138    3    3    3    2
 0.222298224402138    3    3    3    3
 0.01513148437957329    4    1    1    1
 -0.02506833177539025    4    1    2    1
 -0.004462327691652164    4    1    2    2
 0.01497270911805713    4    1    3    1
 -0.03698896261669712    4    1    3    2
 -0.0006828989163015089    4    1    3    3
 0.05879278489908045    4    1    4    1
 -0.03577327687312256    4    2    1    1
 -0.00172772785967512    4    2    2    1
 -0.0072319497648761    4    2    2    2
 -0.05232864221726236    4    2    3    1
 -0.01536874825240793    4    2    3    2
 -0.00018973361715985    4    2    3    3
 0.01355458504305367    4    2    4    1
 0.07304374537035005    4    2    4    2
 0.02680232610483771    4    3    1    1
 -0.07768675061281932    4    3    2    1
 -0.02985070536965105    4    3    2    2
 -0.008755794526737529    4    3    3    1
 0.04123000636880218    4    3    3    2
 0.02430093882906737    4    3    3    3
 0.002565124803471439    4    3    4    1
 -0.004094083710221468    4    3    4    2
 0.08430168160270113    4    3    4    3
 0.185270419639036    4    4    1    1
 0.02562186655175422    4    4    2    1
 0.2016715119672255    4    4    2    2
 0.007193154222792369    4    4    3    1
 -0.01065506148487048    4    4    3    2
 0.1854488576755881    4    4    3    3
 -0.003808140628491233    4    4    4    1
 -0.006160178531974043    4    4    4    2
 -0.02419991966927014    4    4    4    3
 0.2126865961638431    4    4    4    4
 0.02662539535348301    5    1    1    1
 -0.01100312980130843    5    1    2    1
 0.032701359297047    5    1    2    2
 -0.01667547482758247    5    1    3    1
 -2.718471129941743e-05    5    1    3    2
 -0.02247536702012694    5    1    3    3
 0.008463273167388975    5    1    4    1
 -0.02107447419382876    5    1    4    2
 -0.0001315670098199791    5    1    4    3
 -0.0003320605659736817    5    1    4    4
 0.05425218479057128    5    1    5    1
 -0.01191608081731065    5    2    1    1
 0.03944920832952403    5    2    2    1
 0.01712505255257225    5    2    2    2
 -0.001622561306965868    5    2    3    1
 0.00368020570654352    5    2    3    2
 -0.0008335891499840616    5    2    3    3
 -0.03208515098841552    5    2    4    1
 -0.01273005234759794    5    2    4    2
 0.006276866940717103    5    2    4    3
 0.001630412427748455    5    2    4    4
 -0.007379001724714594    5    2    5    1
 0.04803970419523786    5    2    5    2
 -0.03247812437247293    5    3    1    1
 -0.003110274605346031    5    3    2    1
 -0.003325345973957455    5    3    2    2
 -0.05520957865783394    5    3    3    1
 0.004438583392618337    5    3    3    2
 -0.02146985554512863    5    3    3    3
 -0.006723933178144282    5    3    4    1
 0.03958221492604705    5    3    4    2
 0.008931895456966325    5    3    4    3
 0.006650847219750013    5    3    4    4
 0.003990852300392892    5    3    5    1
 0.003815737557704852    5    3    5    2
 0.06877532964270215    5    3    5    3
 0.01939615813167814    5    4    1    1
 -0.05841066617815933    5    4    2    1
 -0.02529385838217968    5    4    2    2
 -0.007183576172392668    5    4    3    1
 0.04197335077589537    5    4    3    2
 0.01685973204597501    5    4    3    3
 -0.009105777520509261    5    4    4    1
 -0.007551303755143529    5    4    4    2
 0.05428392233931879    5    4    4    3
 -0.01857568209998527    5    4    4    4
 0.001051576467701845    5    4    5    1
 -0.001664340147744295    5    4    5    2
 0.005775185568115416    5    4    5    3
 0.0649833990635678    5    4    5    4
 0.1994269053243468    5    5    1    1
 -0.01667092267548249    5    5    2    1
 0.1799644291330472    5    5    2    2
 0.01056314571278465    5    5    3    1
 0.008811437592779527    5    5    3    2
 0.197296815985052    5    5    3    3
 0.001679229232410096    5    5    4    1
 -0.009279744229935759    5    5    4    2
 0.01346920130053175    5    5    4    3
 0.1834716911035383    5    5    4    4
 -0.001273725654990959    5    5    5    1
 -0.0025608883346049    5    5    5    2
 -0.01045726045957959    5    5    5    3
 0.0134331066229633    5    5    5    4
 0.206835591043504    5    5    5    5
 0.002595611910552075    6    1    1    1
 -0.01422699337507136    6    1    2    1
 -0.005044589636357985    6    1    2    2
 -0.01249084718605768    6    1    3    1
 0.02442030722556752    6    1    3    2
 -0.003090339562649367    6    1    3    3
 -0.01628876343683979    6    1    4    1
 -0.002006676408182513    6    1    4    2
 -0.0160650480608799    6    1    4    3
 0.002778465823709845    6    1    4    4
 0.00916569133900413    6    1    5    1
 -0.02361224391362377    6    1    5    2
 -0.00152859335574362    6    1    5    3
 0.00236056628752467    6    1    5    4
 4.127640339815631e-05    6    1    5    5
 0.04168568561387651    6    1    6    1
 -0.01457860350098095    6    2    1    1
 -0.006375454125645171    6    2    2    1
 -0.0378311037372878    6    2    2    2
 0.02710005870805579    6    2    3    1
 0.006084583657261685    6    2    3    2
 0.006538485276885533    6    2    3    3
 -0.000967046864462824    6    2    4    1
 -0.003681336932474231    6    2    4    2
 -0.002309265065007544    6    2    4    3
 0.01226390732128449    6    2    4    4
 -0.03110639666435656    6    2    5    1
 -0.01032658947890923    6    2    5    2
 0.006419093561300352    6    2    5    3
 0.0001697869562576471    6    2    5    4
 0.001739184769970087    6    2    5    5
 0.005014489711823002    6    2    6    1
 0.0473419006657779    6    2    6    2
 -0.01814387640546381    6    3    1    1
 0.03601947662925047    6    3    2    1
 0.009047469239331774    6    3    2    2
 -0.006807037140453991    6    3    3    1
 0.01122306731980962    6    3    3    2
 -0.005895997997956238    6    3    3    3
 -0.03672010350872381    6    3    4    1
 -0.007209620389772777    6    3    4    2
 -0.01210090697589059    6    3    4    3
 0.003534018432288246    6    3    4    4
 -0.007264980132831057    6    3    5    1
 0.02811593528813301    6    3    5    2
 0.009094185570753591    6    3    5    3
 0.01950351578698142    6    3    5    4
 -0.000204728458729349    6    3    5    5
 -0.0005771220381572814    6    3    6    1
 -0.002201410266884992    6    3    6    2
 0.05300915814798358    6    3    6    3
 -0.03733383756896349    6    4    1    1
 -0.00122603211009882    6    4    2    1
 -0.01120517008007204    6    4    2    2
 -0.0460354057177816    6    4    3    1
 -0.007475863158777644    6    4    3    2
 -0.02160596920336694    6    4    3    3
 0.005541394390616749    6    4    4    1
 0.04672258945565744    6    4    4    2
 0.0001123556198264216    6    4    4    3
 -0.006433863167145173    6    4    4    4
 -0.003174594554631809    6    4    5    1
 -0.004860570849582851    6    4    5    2
 0.04942302372711144    6    4    5    3
 -0.009106797643459038    6    4    5    4
 0.0003979499800772944    6    4    5    5
 -0.001128306123828553    6    4    6    1
 0.002333922537828918    6    4    6    2
 -0.005908355667528471    6    4    6    3
 0.06256645199806178    6    4    6    4
 0.02287878461749649    6    5    1    1
 -0.06956494685547729    6    5    2    1
 -0.02735816890202489    6    5    2    2
 -0.01060948411647886    6    5    3    1
 0.04222699963225917    6    5    3    2
 0.01934058020777741    6    5    3    3
 -0.002995570570857311    6    5    4    1
 -0.004460047877153483    6    5    4    2
 0.06688626340080302    6    5    4    3
 -0.01971741994952692    6    5    4    4
 0.00208686760094715    6    5    5    1
 -0.0009054729458252486    6    5    5    2
 0.008427724441558123    6    5    5    3
 0.05408239432370278    6    5    5    4
 0.01422031242053223    6    5    5    5
 -0.002872983831189686    6    5    6    1
 -5.215497241874833e-05    6    5    6    2
 -0.001583743470077556    6    5    6    3
 -0.002689868310801892    6    5    6    4
 0.07535298993168572    6    5    6    5
 0.1854421244310243    6    6    1    1
 0.0133582585498391    6    6    2    1
 0.1930125552975787    6    6    2    2
 0.005019521199099562    6    6    3    1
 -0.006181469404283236    6    6    3    2
 0.1882087615976747    6    6    3    3
 -0.001416881236290954    6    6    4    1
 -0.001285653108804196    6    6    4    2
 -0.01221905804606145    6    6    4    3
 0.192911292001135    6    6    4    4
 -0.002808173560850178    6    6    5    1
 0.00111507297067846    6    6    5    2
 -0.005654847652057854    6    6    5    3
 -0.008153541816312457    6    6    5    4
 0.1875740217693683    6    6    5    5
 0.0007831884762386248    6    6    6    1
 0.0006085237156928261    6    6    6    2
 0.002307161407141978    6    6    6    3
 -0.004611490093884842    6    6    6    4
 -0.01200881843620157    6    6    6    5
 0.2019639571588272    6    6    6    6
 0.002659963529438935    7    1    1    1
 -0.001566336192188553    7    1    2    1
 -0.004352944114770508    7    1    2    2
 0.01556554729001455    7    1    3    1
 -0.004568504740085967    7    1    3    2
 -0.01820465506028248    7    1    3    3
 0.008071566190140708    7    1    4    1
 -0.02407983454828153    7    1    4    2
 0.001371644307579408    7    1    4    3
 0.01224702117212867    7    1    4    4
 0.01513031856830425    7    1    5    1
 -0.0008077702980067163    7    1    5    2
 0.01692221897876847    7    1    5    3
 0.001978196127408619    7    1    5    4
 0.001764372749123053    7    1    5    5
 -0.006392636963930172    7    1    6    1
 0.01784041278345991    7    1    6    2
 0.001367435555719973    7    1    6    3
 0.004541266141835204    7    1    6    4
 0.00117628132949151    7    1    6    5
 -0.002968132873736514    7    1    6    6
 0.04016656822969945    7    1    7    1
 -0.0013969910791302    7    2    1    1
 -0.003739645051202136    7    2    2    1
 -0.005692732635400063    7    2    2    2
 -0.005209612974299421    7    2    3    1
 0.0267320973811608    7    2    3    2
 0.0007582513195322469    7    2    3    3
 -0.02707407106634991    7    2    4    1
 -0.01140538065201212    7    2    4    2
 -0.001037611513159941    7    2    4    3
 0.00511372007630205    7    2    4    4
 -0.0002657353276163673    7    2    5    1
 0.001905458994544729    7    2    5    2
 -7.702493442273026e-05    7    2    5    3
 -0.01302016751034091    7    2    5    4
 -0.001362966799357098    7    2    5    5
 0.02377843384593766    7    2    6    1
 0.009788523589479365    7    2    6    2
 -0.01075785935106458    7    2    6    3
 0.001491727305590925    7    2    6    4
 -0.001463480109308251    7    2    6    5
 -0.0002139200793494717    7    2    6    6
 -0.002926011367841063    7    2    7    1
 0.04137449423610128    7    2    7    2
 0.02220306660764175    7    3    1    1
 -0.007348382105724442    7    3    2    1
 0.03415780362301047    7    3    2    2
 -0.02592789962335327    7    3    3    1
 0.001782018281289601    7    3    3    2
 -0.003607569865670184    7    3    3    3
 0.002281690784864046    7    3    4    1
 -0.001069138044271589    7    3    4    2
 0.003346980793042717    7    3    4    3
 0.005794124226270768    7    3    4    4
 0.03393540887463749    7    3    5    1
 -0.001802544797460638    7    3    5    2
 0.007023783952454662    7    3    5    3
 -0.001096515365412213    7    3    5    4
 -0.01372630941857513    7    3    5    5
 0.005641610119974895    7    3    6    1
 -0.02860888792665306    7    3    6    2
 -0.007852229493719616    7    3    6    3
 -0.0136145071705623    7    3    6    4
 0.0008175192154827507    7    3    6    5
 -0.001389471268984962    7    3    6    6
 -0.004223353191315133    7    3    7    1
 0.001460999993054056    7    3    7    2
 0.0463968722252917    7    3    7    3
 0.01350641824758475    7    4    1    1
 -0.04262365829143687    7    4    2    1
 -0.01823404279732227    7    4    2    2
 0.002383745484554142    7    4    3    1
 -0.001759199276929192    7    4    3    2
 0.004368209710964683    7    4    3    3
 0.03100361849683366    7    4    4    1
 0.01046338563026781    7    4    4    2
 0.01025195977002133    7    4    4    3
 -0.006669343059660672    7    4    4    4
 0.005084480354431927    7    4    5    1
 -0.03569986702067531    7    4    5    2
 -0.00368781882668882    7    4    5    3
 0.0003367866036548793    7    4    5    4
 0.002245520200905835    7    4    5    5
 0.01114295421349411    7    4    6    1
 0.006835987473751676    7    4    6    2
 -0.03564943838715069    7    4    6    3
 0.008395127065726335    7    4    6    4
 -0.007686616708543741    7    4    6    5
 -0.0007390814175639335    7    4    6    6
 0.0001345008554974505    7    4    7    1
 0.002601299835603386    7    4    7    2
 0.002812571905172694    7    4    7    3
 0.04908881210148847    7    4    7    4
 0.03941527925636515    7    5    1    1
 0.000184540734313559    7    5    2    1
 0.01106237454404598    7    5    2    2
 0.05164755091933931    7    5    3    1
 -0.001878299281187404    7    5    3    2
 0.01893009628837801    7    5    3    3
 0.006035680716053231    7    5    4    1
 -0.04654012490666203    7    5    4    2
 -0.004501207188207058    7    5    4    3
 0.007092887249560018    7    5    4    4
 0.006220038589701229    7    5    5    1
 -0.002022042586313869    7    5    5    2
 -0.05164069834144743    7    5    5    3
 -0.0005406804354771257    7    5    5    4
 0.01244895529891009    7    5    5    5
 -6.997601868554308e-05    7    5    6    1
 -0.0009052645606359024    7    5    6    2
 -0.005022879497621418    7    5    6    3
 -0.04713944835755202    7    5    6    4
 -0.006364054497711764    7    5    6    5
 -0.004513159505836357    7    5    6    6
 0.002301263458406356    7    5    7    1
 -0.0005842543394525286    7    5    7    2
 0.00157557993624309    7    5    7    3
 0.002769372720754554    7    5    7    4
 0.06175575298903423    7    5    7    5
 -0.0206951096895044    7    6    1    1
 0.06299113720309697    7    6    2    1
 0.02739283258799081    7    6    2    2
 0.008937218187880163    7    6    3    1
 -0.04914763344602797    7    6    3    2
 -0.01964557833995873    7    6    3    3
 0.01456632365754596    7    6    4    1
 0.009579844517759175    7    6    4    2
 -0.06031774015313173    7    6    4    3
 0.01840893531763175    7    6    4    4
 0.00010383656447762    7    6    5    1
 -0.001230093098182706    7    6    5    2
 -0.004911669117346374    7    6    5    3
 -0.05564915503765875    7    6    5    4
 -0.01314629944548725    7    6    5    5
 -0.005302000289074855    7    6    6    1
 -0.001948346339130742    7    6    6    2
 -0.006796571820608141    7    6    6    3
 0.006587552654499    7    6    6    4
 -0.06005130532830164    7    6    6    5
 0.01051307320245    7    6    6    6
 0.001047662547400858    7    6    7    1
 -0.004824970830170746    7    6    7    2
 -0.0001995753616679262    7    6    7    3
 0.0007243298139474937    7    6    7    4
 0.002246988168906015    7    6    7    5
 0.07075712466213195    7    6    7    6
 0.1962230321160972    7    7    1    1
 -0.008792916967908978    7    7    2    1
 0.1919231370983403    7    7    2    2
 -0.004050782722936528    7    7    3    1
 0.004723867886607154    7    7    3    2
 0.1926024038476976    7    7    3    3
 0.0003114830220264719    7    7    4    1
 -0.000844503413664774    7    7    4    2
 0.007251974720992613    7    7    4    3
 0.1873289370213266    7    7    4    4
 0.005362750849897847    7    7    5    1
 -0.0009118720895863338    7    7    5    2
 -0.001663408506901491    7    7    5    3
 0.006175629978308406    7    7    5    4
 0.1913185821420599    7    7    5    5
 0.001190550009394585    7    7    6    1
 -0.006680684369905542    7    7    6    2
 -0.001225672234208097    7    7    6    3
 -0.003706348851090035    7    7    6    4
 0.006545437069813962    7    7    6    5
 0.18826213639467    7    7    6    6
 -0.003231642343363437    7    7    7    1
 -0.0006163766397684385    7    7    7    2
 0.007649264463230456    7    7    7    3
 0.001158469277343429    7    7    7    4
 0.003753489650613611    7    7    7    5
 -0.007113707664025805    7    7    7    6
 0.20141300974234    7    7    7    7
 -0.0009253135972092162    8    1    1    1
 0.003450883223856703    8    1    2    1
 0.0003170644557344322    8    1    2    2
 0.0002079115207687704    8    1    3    1
 0.006316500468960373    8    1    3    2
 0.009405571635930475    8    1    3    3
 -0.01101752476873122    8    1    4    1
 -0.002082892756633783    8    1    4    2
 0.01575369879957045    8    1    4    3
 -0.0005614020424837455    8    1    4    4
 -0.009973057396814056    8    1    5    1
 0.01985256455574101    8    1    5    2
 -0.003046144419443894    8    1    5    3
 -0.01737192500402921    8    1    5    4
 -0.003225297217525564    8    1    5    5
 -0.0108906036436838    8    1    6    1
 -0.0003683116509011486    8    1    6    2
 -0.01753871822492055    8    1    6    3
 0.0008609489580753536    8    1    6    4
 0.002472970090341443    8    1    6    5
 -0.0003416833924893798    8    1    6    6
 -0.00858801042105415    8    1    7    1
 0.02318454449121615    8    1    7    2
 0.001964271714489595    8    1    7    3
 -0.003324860579389552    8    1    7    4
 -0.001515150567516924    8    1    7    5
 -0.0009204779749352864    8    1    7    6
 -0.0002339096360203639    8    1    7    7
 0.03816318944053889    8    1    8    1
 0.002810757985873569    8    2    1    1
 0.0006181389782904686    8    2    2    1
 0.001449366297029791    8    2    2    2
 0.006467038324120947    8    2    3    1
 0.003099069167704645    8    2    3    2
 -0.02084735033244031    8    2    3    3
 -0.002595653029983674    8    2    4    1
 -0.0257022838508331    8    2    4    2
 0.001999514858285471    8    2    4    3
 0.001005641181904621    8    2    4    4
 0.02173874998125673    8    2    5    1
 0.005169624524692678    8    2    5    2
 0.007525263108405399    8    2    5    3
 -0.003692572328955211    8    2    5    4
 0.009275235569506979    8    2    5    5
 -5.298143636302898e-05    8    2    6    1
 0.002089916057142981    8    2    6    2
 -0.001587293203768826    8    2    6    3
 0.01332131793698684    8    2    6    4
 -0.0001038899775666063    8    2    6    5
 -0.004209387933898942    8    2    6    6
 0.02784572299473402    8    2    7    1
 0.009663699239054434    8    2    7    2
 -0.007861492234092471    8    2    7    3
 -0.0004905707046307532    8    2    7    4
 0.003619722400368106    8    2    7    5
 -0.0002975251318819474    8    2    7    6
 -0.002129673788333625    8    2    7    7
 0.001242188685248159    8    2    8    1
 0.03739366737690928    8    2    8    2
 -0.0002472271043013088    8    3    1    1
 0.008989131523658586    8    3    2    1
 0.003622251971694957    8    3    2    2
 0.01300737887854241    8    3    3    1
 -0.02619784119511964    8    3    3    2
 0.000442945175266122    8    3    3    3
 0.02257131707765155    8    3    4    1
 0.003329599284797802    8    3    4    2
 0.006537851107134238    8    3    4    3
 -0.001676077603585297    8    3    4    4
 -0.004756188898921294    8    3    5    1
 0.009516937783804167    8    3    5    2
 -0.002392188548697741    8    3    5    3
 -0.007592546704097813    8    3    5    4
 0.001940204763598793    8    3    5    5
 -0.03077170273035492    8    3    6    1
 -0.003262069846781832    8    3    6    2
 -0.006652912832730774    8    3    6    3
 0.001329032706423874    8    3    6    4
 0.01356226221492267    8    3    6    5
 -0.001249289144605393    8    3    6    6
 0.005546168581601183    8    3    7    1
 -0.02092652611255461    8    3    7    2
 -0.006916379685112204    8    3    7    3
 -0.0172411515476581    8    3    7    4
 -0.0006638212798835174    8    3    7    5
 0.007356425663101551    8    3    7    6
 -0.001771390860820863    8    3    7    7
 0.005288195755085486    8    3    8    1
 -0.0001366892882951001    8    3    8    2
 0.04107119124952525    8    3    8    3
 -0.01650471891189173    8    4    1    1
 -0.003999726633208617    8    4    2    1
 -0.03831194804528203    8    4    2    2
 0.02724484262024639    8    4    3    1
 0.003547879338549798    8    4    3    2
 0.007989996918707281    8    4    3    3
 -0.0002303010966175726    8    4    4    1
 0.0003248863680796621    8    4    4    2
 -0.0008067347479191787    8    4    4    3
 -0.004549079240548179    8    4    4    4
 -0.0339800225863105    8    4    5    1
 -0.006724241754221536    8    4    5    2
 -0.01015610402863913    8    4    5    3
 0.003177488460854803    8    4    5    4
 0.002575981422180481    8    4    5    5
 0.001206930085750822    8    4    6    1
 0.03230516320474787    8    4    6    2
 0.0003805152067964117    8    4    6    3
 -0.0005654437275314447    8    4    6    4
 -0.001635092978210678    8    4    6    5
 0.01010979646257624    8    4    6    6
 -6.473540791100346e-05    8    4    7    1
 0.002512456083667901    8    4    7    2
 -0.03355318350252782    8    4    7    3
 0.007701644238516034    8    4    7    4
 -0.008138988094886366    8    4    7    5
 -0.001551121180419024    8    4    7    6
 -0.008561060753115841    8    4    7    7
 -0.0002416322933719255    8    4    8    1
 -0.006060484273873934    8    4    8    2
 -0.001494064335147515    8    4    8    3
 0.04406094221696003    8    4    8    4
 -0.01952785117320258    8    5    1    1
 0.04090490902006227    8    5    2    1
 0.01066248122667847    8    5    2    2
 -0.006385936270327494    8    5    3    1
 0.01250603487257245    8    5    3    2
 -0.004592990419450532    8    5    3    3
 -0.04172040006272398    8    5    4    1
 -0.00869746018191459    8    5    4    2
 -0.0137233524682283    8    5    4    3
 0.005311588676731803    8    5    4    4
 -0.009634435375442124    8    5    5    1
 0.03247908338737632    8    5    5    2
 0.005512197314187625    8    5    5    3
 0.003295808002924302    8    5    5    4
 -0.003390791930255344    8    5    5    5
 0.001145090890403035    8    5    6    1
 -0.001458554742131814    8    5    6    2
 0.04053197881867081    8    5    6    3
 -0.00495336655100132    8    5    6    4
 -0.005935905613516882    8    5    6    5
 0.002370541428333967    8    5    6    6
 -0.00344614411377664    8    5    7    1
 0.006463411618770992    8    5    7    2
 -0.005867064873624124    8    5    7    3
 -0.03568147717677768    8    5    7    4
 -0.006001189975560426    8    5    7    5
 -0.01352726856094044    8    5    7    6
 -0.0009200682150060506    8    5    7    7
 0.001569956616592893    8    5    8    1
 0.0004807289779467626    8    5    8    2
 -0.007840935592236762    8    5    8    3
 -0.0001563739135488267    8    5    8    4
 0.05159472133777667    8    5    8    5
 -0.03524688705019477    8    6    1    1
 9.901341328858246e-05    8    6    2    1
 -0.002554401926373536    8    6    2    2
 -0.05585127173611113    8    6    3    1
 -0.005252050524999564    8    6    3    2
 -0.0217082237590841    8    6    3    3
 0.001689421652738209    8    6    4    1
 0.0493906021240897    8    6    4    2
 0.0009349270436442226    8    6    4    3
 -0.006802923843297789    8    6    4    4
 0.002423270039910474    8    6    5    1
 -0.001930048275507579    8    6    5    2
 0.05138896700327537    8    6    5    3
 -0.005392395285828149    8    6    5    4
 -0.0132987077642007    8    6    5    5
 -0.0002502325958995388    8    6    6    1
 -0.007392285163304831    8    6    6    2
 -0.00145199935331888    8    6    6    3
 0.04942614263709452    8    6    6    4
 0.0006694152180665966    8    6    6    5
 -0.005341688502223705    8    6    6    6
 -0.002757345070169729    8    6    7    1
 -0.001583033620397406    8    6    7    2
 0.007008469365126324    8    6    7    3
 0.002019608250936829    8    6    7    4
 -0.0508497758192997    8    6    7    5
 0.005652521433760394    8    6    7    6
 0.00552822386006371    8    6    7    7
 0.0003029487850533577    8    6    8    1
 -0.00148868094971751    8    6    8    2
 0.0004330737952538119    8    6    8    3
 -0.01024831541485922    8    6    8    4
 -0.00206572830789704    8    6    8    5
 0.0613104051377406    8    6    8    6
 -0.02751486680721736    8    7    1    1
 0.08272506285696395    8    7    2    1
 0.03213207180004271    8    7    2    2
 0.01158222228754585    8    7    3    1
 -0.04551678071679974    8    7    3    2
 -0.02028047492646234    8    7    3    3
 -0.002468227179151093    8    7    4    1
 0.003122717093138747    8    7    4    2
 -0.06971553038462146    8    7    4    3
 0.02128506906687947    8    7    4    4
 -0.005263696258146956    8    7    5    1
 0.01160741992658867    8    7    5    2
 -0.007989927391250914    8    7    5    3
 -0.05606601062209012    8    7    5    4
 -0.01376106308254774    8    7    5    5
 -0.004041989080473867    8    7    6    1
 -0.001759072982651101    8    7    6    2
 0.01058695802650121    8    7    6    3
 0.001138093878064725    8    7    6    4
 -0.06643183746457931    8    7    6    5
 0.01161145163328625    8    7    6    6
 -0.001246023112413979    8    7    7    1
 -0.002043481240309404    8    7    7    2
 -0.004432066767886099    8    7    7    3
 -0.01398911619572094    8    7    7    4
 0.004279874191362273    8    7    7    5
 0.06177388926732181    8    7    7    6
 -0.007878162882188474    8    7    7    7
 -0.0008246687677162664    8    7    8    1
 -0.0002849741833814042    8    7    8    2
 0.002719560330213826    8    7    8    3
 -0.000711380554697988    8    7    8    4
 0.01535026978118679    8    7    8    5
 -0.0003005824011063573    8    7    8    6
 0.07939794197304627    8    7    8    7
 0.2082617903451162    8    8    1    1
 0.004237992113037733    8    8    2    1
 0.1992632650316242    8    8    2    2
 0.02226105280191894    8    8    3    1
 -0.0006277204748864604    8    8    3    2
 0.1991270838193125    8    8    3    3
 -0.0002569087859224836    8    8    4    1
 -0.02236939961981211    8    8    4    2
 -0.004315821144955582    8    8    4    3
 0.1949797118404323    8    8    4    4
 0.004186116924728103    8    8    5    1
 0.001548173004925775    8    8    5    2
 -0.0250632963010746    8    8    5    3
 -0.0009506074186408904    8    8    5    4
 0.1953721842027248    8    8    5    5
 0.0004603434463686715    8    8    6    1
 -0.003466375617437728    8    8    6    2
 0.0003200552401938335    8    8    6    3
 -0.02555185499102825    8    8    6    4
 -0.004187639964765932    8    8    6    5
 0.1936160556474888    8    8    6    6
 -0.001379293058255503    8    8    7    1
 -0.0001322653394487443    8    8    7    2
 0.004313862402441031    8    8    7    3
 -0.00183799506688497    8    8    7    4
 0.02709023939572994    8    8    7    5
 0.001310029494589669    8    8    7    6
 0.1939669947364105    8    8    7    7
 -0.0002059809545697639    8    8    8    1
 -0.001201376300841494    8    8    8    2
 -0.0007326472025148233    8    8    8    3
 -0.003646303213461249    8    8    8    4
 0.0007668125015065934    8    8    8    5
 -0.02696919830738059    8    8    8    6
 0.004472120866612271    8    8    8    7
 0.2130455617725011    8    8    8    8
 -0.0002781818641489096    9    1    1    1
 0.0006800742696381701    9    1    2    1
 0.002571946198551091    9    1    2    2
 -0.00418937156878991    9    1    3    1
 0.001170199148885399    9    1    3    2
 -0.008020980669617346    9    1    3    3
 -0.001699008068123986    9    1    4    1
 -0.002060271467648432    9    1    4    2
 -0.004182671262579049    9    1    4    3
 -0.01703641219492374    9    1    4    4
 0.009873780635249674    9    1    5    1
 -0.001366852535619524    9    1    5    2
 -0.01384624380131591    9    1    5    3
 0.0006166042571199777    9    1    5    4
 0.01344722688231663    9    1    5    5
 0.006271565763542782    9    1    6    1
 -0.01779070433429846    9    1    6    2
 0.002196524606018197    9    1    6    3
 0.01194708836168043    9    1    6    4
 0.0002594608423089406    9    1    6    5
 -0.0001746930663713306    9    1    6    6
 -0.009461657646066698    9    1    7    1
 -5.351601368566191e-05    9    1    7    2
 -0.01268689781947944    9    1    7    3
 -0.0002696221182761173    9    1    7    4
 0.001707820315638946    9    1    7    5
 -0.0001867365919155047    9    1    7    6
 -0.000244747516614217    9    1    7    7
 -0.005302503447870098    9    1    8    1
 0.01339182611840521    9    1    8    2
 -0.0007781428664262606    9    1    8    3
 -0.001675257553418813    9    1    8    4
 0.000960274138769249    9    1    8    5
 -0.0006489921861408197    9    1    8    6
 0.001087636328662687    9    1    8    7
 -0.0001453883451859788    9    1    8    8
 0.03447764440380972    9    1    9    1
 0.000477068892422905    9    2    1    1
 0.002436890840680603    9    2    2    1
 0.002255515680863121    9    2    2    2
 0.001261065030094527    9    2    3    1
 -0.0009618247723505175    9    2    3    2
 0.001995039222036608    9    2    3    3
 -0.001943792380113701    9    2    4    1