 &FCI NORB=  36,NELEC=48,MS2=0,
  ORBSYM=1,1,1,1,1,1,1,1,1,1,1,1,1,1,1,1,1,1,1,1,1,1,1,1,1,1,1,1,1,1,1,1,1,1,1,1,
  ISYM=1,
 &END
 11.96787779792122    1    1    1    1
 3.414646821544566    2    1    1    1
 2.581411899163522    2    1    2    1
 2.934197701758402    2    2    1    1
 -3.414649493458873    2    2    2    1
 11.96787375799518    2    2    2    2
 -1.292584199571438    3    1    1    1
 -0.2779924198758695    3    1    2    1
 -0.5571355642049218    3    1    2    2
 0.2500574364259568    3    1    3    1
 -0.2780132892513723    3    2    1    1
 -0.5571776206230723    3    2    2    1
 1.196036419601675    3    2    2    2
 0.0003167713407372636    3    2    3    1
 0.2492187994316628    3    2    3    2
 2.499914895120082    3    3    1    1
 0.002720212984479855    3    3    2    1
 2.492717833562636    3    3    2    2
 -0.08686994712040796    3    3    3    1
 0.04288610546269531    3    3    3    2
 1.789957997794265    3    3    3    3
 -1.196154546631933    4    1    1    1
 -0.5572329563529095    4    1    2    1
 0.2780428062666201    4    1    2    2
 0.1991570549730313    4    1    3    1
 0.1505590636202962    4    1    3    2
 -0.04325438908315533    4    1    3    3
 0.2492696099418347    4    1    4    1
 -0.5571882954533982    4    2    1    1
 0.2780206374884053    4    2    2    1
 -1.292709064364062    4    2    2    2
 0.1505590779177932    4    2    3    1
 -0.1991569480765464    4    2    3    2
 -0.08669397726800121    4    2    3    3
 -0.000317047934538075    4    2    4    1
 0.2501078277697386    4    2    4    2
 1.709531782508055    4    3    1    1
 1.292374768261708    4    3    2    1
 -1.709531345455287    4    3    2    2
 -0.04327702568567612    4    3    3    1
 -0.08673957659114424    4    3    3    2
 0.003022937174940271    4    3    3    3
 -0.08674730135337816    4    3    4    1
 0.04328081159049516    4    3    4    2
 1.436095982085742    4    3    4    3
 2.492924947892444    4    4    1    1
 -0.002720480901515787    4    4    2    1
 2.500121599217122    4    4    2    2
 -0.08670589135677335    4    4    3    1
 0.04326026511775952    4    4    3    2
 1.790010156312237    4    4    3    3
 -0.04289820755393205    4    4    4    1
 -0.08689433851188971    4    4    4    2
 -0.003022798119544641    4    4    4    3
 1.790088999838661    4    4    4    4
 0.1160351115393272    5    1    5    1
 0.0005701482146507783    5    2    5    1
 0.114574775556474    5    2    5    2
 0.1042028900018448    5    3    5    1
 -0.05067615703504665    5    3    5    2
 0.3270283545574815    5    3    5    3
 0.05244280632751632    5    4    5    1
 0.1035699115698518    5    4    5    2
 0.002634135981426798    5    4    5    3
 0.3283866297146765    5    4    5    4
 2.538789501146011    5    5    1    1
 0.01052617141623861    5    5    2    1
 2.510940473890264    5    5    2    2
 -0.05321713970771295    5    5    3    1
 0.02588072794001661    5    5    3    2
 1.83582236058268    5    5    3    3
 -0.02673330556961775    5    5    4    1
 -0.05279463682727711    5    5    4    2
 0.01191640052803863    5    5    4    3
 1.835977573600014    5    5    4    4
 2.042332297249596    5    5    5    5
 1.56190524664828e-11    6    1    5    1
 1.180770816341204e-11    6    1    5    2
 8.790607526354483e-12    6    1    5    3
 1.762696054315826e-11    6    1    5    4
 0.1160351115439723    6    1    6    1
 1.180768968753425e-11    6    2    5    1
 -1.561907221231926e-11    6    2    5    2
 1.761864236647137e-11    6    2    5    3
 -8.794772493634895e-12    6    2    5    4
 0.0005701482181625182    6    2    6    1
 0.1145747755518286    6    2    6    2
 8.790656538602235e-12    6    3    5    1
 1.761876540680982e-11    6    3    5    2
 5.565074574710444e-11    6    3    5    4
 0.1042028900044591    6    3    6    1
 -0.05067615702980661    6    3    6    2
 0.3270283545575164    6    3    6    3
 1.7626882748072e-11    6    4    5    1
 -8.794731506391265e-12    6    4    5    2
 5.565015066620357e-11    6    4    5    3
 0.05244280633275872    6    4    6    1
 0.1035699115672361    6    4    6    2
 0.002634135997977875    6    4    6    3
 0.3283866297146412    6    4    6    4
 2.943337725637107e-10    6    5    1    1
 2.225113066807593e-10    6    5    2    1
 -2.943346407453911e-10    6    5    2    2
 -4.489990495776392e-12    6    5    3    1
 -8.999163479801338e-12    6    5    3    2
 -8.998549901870906e-12    6    5    4    1
 4.489611683388881e-12    6    5    4    2
 2.518868389231802e-10    6    5    4    3
 2.306495759712709e-12    6    5    5    5
 0.1002495996960121    6    5    6    5
 2.538789501233547    6    6    1    1
 0.01052617148241601    6    6    2    1
 2.510940473802723    6    6    2    2
 -0.05321713970904805    6    6    3    1
 0.02588072793733993    6    6    3    2
 1.835822360582837    6    6    3    3
 -0.026733305572294    6    6    4    1
 -0.05279463682594165    6    6    4    2
 0.01191640060295366    6    6    4    3
 1.835977573599855    6    6    4    4
 1.841833097858257    6    6    5    5
 2.306285460821002e-12    6    6    6    5
 2.042332297250966    6    6    6    6
 -0.0919690484524649    7    1    5    1
 -0.06954360054730731    7    1    5    2
 -0.0517193049053574    7    1    5    3
 -0.1038747102589164    7    1    5    4
 0.0006018451950584306    7    1    6    1
 0.0004550931268832495    7    1    6    2
 0.0003384509861916046    7    1    6    3
 0.0006797558125271517    7    1    6    4
 0.1145644654988529    7    1    7    1
 -0.0695099962008206    7    2    5    1
 0.09196915362738589    7    2    5    2
 -0.1036582340142273    7    2    5    3
 0.05182682608790351    7    2    5    4
 0.000454873220134161    7    2    6    1
 -0.0006018458833205721    7    2    6    2
 0.0006783391925887649    7    2    6    3
 -0.0003391546045070331    7    2    6    4
 -0.0005738494299765256    7    2    7    1
 0.1160192050380545    7    2    7    2
 -0.05180389623991445    7    3    5    1
 -0.103828663808896    7    3    5    2
 -0.000693916887376264    7    3    5    3
 -0.328207781176072    7    3    5    4
 0.0003390045516475192    7    3    6    1
 0.0006794544846867063    7    3    6    2
 4.540990076031174e-06    7    3    6    3
 0.002147790799247572    7    3    6    4
 0.103530685272665    7    3    7    1
 -0.05242277071567485    7    3    7    2
 0.328054669416259    7    3    7    3
 -0.1037091094243377    7    4    5    1
 0.05174464406790977    7    4    5    2
 -0.3271608049009077    7    4    5    3
 0.0006939932962767931    7    4    5    4
 0.0006786721211304763    7    4    6    1
 -0.0003386168055988525    7    4    6    2
 0.002140939389441507    7    4    6    3
 -4.541490094006752e-06    7    4    6    4
 0.05068715055318565    7    4    7    1
 0.1042258542299489    7    4    7    2
 -0.002633456929590098    7    4    7    3
 0.3273411851135107    7    4    7    4
 -1.733115212150913    7    5    1    1
 -1.310203955588424    7    5    2    1
 1.73311621287467    7    5    2    2
 0.02643800227630161    7    5    3    1
 0.05298945498539294    7    5    3    2
 -0.003121749170200032    7    5    3    3
 0.0529856437869092    7    5    4    1
 -0.02643617164950409    7    5    4    2
 -1.483174838424264    7    5    4    3
 0.003122181997340844    7    5    4    4
 -0.01358270167018458    7    5    5    5
 5.268924688325199e-06    7    5    6    5
 -0.01197231145010033    7    5    6    6
 1.690639827372891    7    5    7    5
 0.01134150108617071    7    6    1    1
 0.008573971009668467    7    6    2    1
 -0.01134150763488291    7    6    2    2
 -0.0001730102127263786    7    6    3    1
 -0.0003467628447651857    7    6    3    2
 2.042871781644349e-05    7    6    3    3
 -0.0003467379042935843    7    6    4    1
 0.0001729982331085751    7    6    4    2
 0.009705891981686308    7    6    4    3
 -2.043155022695122e-05    7    6    4    4
 7.83467380133622e-05    7    6    5    5
 -0.0008051951508596716    7    6    6    5
 8.888516218959662e-05    7    6    6    6
 -0.010407656002073    7    6    7    5
 0.1002952724913522    7    6    7    6
 2.510816225252457    7    7    1    1
 -0.01052681656707922    7    7    2    1
 2.538664273501783    7    7    2    2
 -0.0527862298563322    7    7    3    1
 0.0267291648797386    7    7    3    2
 1.835718097676795    7    7    3    3
 -0.0258788834463596    7    7    4    1
 -0.05321333436044824    7    7    4    2
 -0.01191596691349758    7    7    4    3
 1.835973628217034    7    7    4    4
 2.042037730142646    7    7    5    5
 -0.001311776829033281    7    7    6    5
 1.841591334368517    7    7    6    6
 0.0135832440923032    7    7    7    5
 -8.888871122799441e-05    7    7    7    6
 2.042196855578631    7    7    7    7
 -0.0006018451948089234    8    1    5    1
 -0.0004550931266891514    8    1    5    2
 -0.0003384509860775645    8    1    5    3
 -0.0006797558122293094    8    1    5    4
 -0.09196904845242602    8    1    6    1
 -0.06954360054727711    8    1    6    2
 -0.0517193049053396    8    1    6    3
 -0.10387471025887    8    1    6    4
 -1.558731339468936e-11    8    1    7    1
 -1.178370795348347e-11    8    1    7    2
 -8.772740477856583e-12    8    1    7    3
 -1.759115022038076e-11    8    1    7    4
 0.114564465493799    8    1    8    1
 -0.0004548732199400778    8    2    5    1
 0.0006018458830755232    8    2    5    2
 -0.0006783391922924008    8    2    5    3
 0.0003391546043957155    8    2    5    4
 -0.06950999620079039    8    2    6    1
 0.09196915362734777    8    2    6    2
 -0.1036582340141812    8    2    6    3
 0.05182682608788617    8    2    6    4
 -1.178369402603141e-11    8    2    7    1
 1.558734925309702e-11    8    2    7    2
 -1.758283956549382e-11    8    2    7    3
 8.776880659692536e-12    8    2    7    4
 -0.0005738494337970663    8    2    8    1
 0.1160192050431082    8    2    8    2
 -0.000339004551533482    8    3    5    1
 -0.0006794544843903759    8    3    5    2
 -4.540990250169199e-06    8    3    5    3
 -0.002147790798353873    8    3    5    4
 -0.05180389623989667    8    3    6    1
 -0.1038286638088499    8    3    6    2
 -0.0006939168874032091    8    3    6    3
 -0.3282077811759329    8    3    6    4
 -8.772788328582025e-12    8    3    7    1
 -1.75829468761395e-11    8    3    7    2
 -5.55376408838311e-11    8    3    7    4
 0.1035306852698206    8    3    8    1
 -0.05242277072137556    8    3    8    2
 0.3280546694162206    8    3    8    3
 -0.0006786721208326342    8    4    5    1
 0.0003386168054875469    8    4    5    2
 -0.002140939388547822    8    4    5    3
 4.541490271385912e-06    8    4    5    4
 -0.1037091094242913    8    4    6    1
 0.0517446440678925    8    4    6    2
 -0.3271608049007685    8    4    6    3
 0.0006939932963044516    8    4    6    4
 -1.759105050835901e-11    8    4    7    1
 8.776856089056701e-12    8    4    7    2
 -5.553703581621995e-11    8    4    7    3
 0.05068715054748216    8    4    8    1
 0.1042258542327944    8    4    8    2
 -0.002633456947596542    8    4    8    3
 0.3273411851135486    8    4    8    4
 -0.01134150108142496    8    5    1    1
 -0.008573971006096715    8    5    2    1
 0.01134150763017935    8    5    2    2
 0.0001730102126533351    8    5    3    1
 0.000346762844621295    8    5    3    2
 -2.042871779872689e-05    8    5    3    3
 0.0003467379041487082    8    5    4    1
 -0.0001729982330375436    8    5    4    2
 -0.009705891977643181    8    5    4    3
 2.043155022765189e-05    8    5    4    4
 -8.888516158058054e-05    8    5    5    5
 -0.0008051951493318004    8    5    6    5
 -7.834680654810834e-05    8    5    6    6
 0.01040765599746419    8    5    7    5
 0.1001590571480216    8    5    7    6
 7.834984415537362e-05    8    5    7    7
 0.1002952724912919    8    5    8    5
 -1.733115212150174    8    6    1    1
 -1.310203955587868    8    6    2    1
 1.733116212873939    8    6    2    2
 0.02643800227629014    8    6    3    1
 0.05298945498537058    8    6    3    2
 -0.003121749170197287    8    6    3    3
 0.05298564378688654    8    6    4    1
 -0.02643617164949306    8    6    4    2
 -1.483174838423634    8    6    4    3
 0.003122181997341103    8    6    4    4
 -0.01197231137527076    8    6    5    5
 -5.269464916310021e-06    8    6    6    5
 -0.01358270175556939    8    6    6    6
 1.49018549773283    8    6    7    5
 -0.01040765600206852    8    6    7    6
 0.01197277564139746    8    6    7    7
 0.01040765599745902    8    6    8    5
 1.690639827371457    8    6    8    6
 -2.93735578284931e-10    8    7    1    1
 -2.22059006857346e-10    8    7    2    1
 2.937362458497508e-10    8    7    2    2
 4.480772343972477e-12    8    7    3    1
 8.980778838672189e-12    8    7    3    2
 8.980130335678051e-12    8    7    4    1
 -4.480467033898818e-12    8    7    4    2
 -2.513749727293595e-10    8    7    4    3
 0.001311776824424365    8    7    5    5
 0.1002231978867215    8    7    6    5
 -0.001311776829028294    8    7    6    6
 5.269720059895402e-06    8    7    7    5
 0.0008052342235757352    8    7    7    6
 2.302343096206508e-12    8    7    7    7
 0.0008052342326113573    8    7    8    5
 -5.269180997161451e-06    8    7    8    6
 0.1002398428399027    8    7    8    7
 2.51081622515722    8    8    1    1
 -0.01052681663907618    8    8    2    1
 2.538664273597017    8    8    2    2
 -0.0527862298548791    8    8    3    1
 0.02672916488265015    8    8    3    2
 1.835718097676621    8    8    3    3
 -0.02587888344344801    8    8    4    1
 -0.05321333436190059    8    8    4    2
 -0.01191596699499854    8    8    4    3
 1.835973628217202    8    8    4    4
 1.841591334368455    8    8    5    5
 0.001311776824419027    8    8    6    5
 2.042037730141212    8    8    6    6
 0.01197277572373194    8    8    7    5
 -7.834977676783087e-05    8    8    7    6
 1.841717169899571    8    8    7    7
 8.88887118085883e-05    8    8    8    5
 0.0135832441852007    8    8    8    6
 2.301904620412297e-12    8    8    8    7
 2.042196855580122    8    8    8    8
 -0.01964034160507208    9    1    1    1
 -0.003565194051217633    9    1    2    1
 -0.01020851532140797    9    1    2    2
 0.002030915368914637    9    1    3    1
 4.35998414997483e-06    9    1    3    2
 -0.005719940975234324    9    1    3    3
 0.001612520487053402    9    1    4    1
 0.001216786389843718    9    1    4    2
 -0.001307189881369672    9    1    4    3
 -0.005703106124263218    9    1    4    4
 -0.002286100212093    9    1    5    5
 -0.002286100212073493    9    1    6    6
 -0.0003864484556337165    9    1    7    5
 2.528917609865357e-06    9    1    7    6
 -0.002296551547511414    9    1    7    7
 -2.528917608096992e-06    9    1    8    5
 -0.0003864484556334248    9    1    8    6
 -0.002296551547532656    9    1    8    8
 0.1156791680517282    9    1    9    1
 -0.002039227413846209    9    2    1    1
 -0.007123938524148317    9    2    2    1
 0.01680768900956823    9    2    2    2
 4.358644961640278e-06    9    2    3    1
 0.002020874322682068    9    2    3    2
 0.002822929916519412    9    2    3    3
 0.001217713604224764    9    2    4    1
 -0.001607800593462097    9    2    4    2
 -0.00261181217841722    9    2    4    3
 0.00282831933954043    9    2    4    4
 0.00113873496003752    9    2    5    5
 0.001138734960076512    9    2    6    6
 -0.0007720319860896532    9    2    7    5
 5.052175150895639e-06    9    2    7    6
 0.001128427967571456    9    2    7    7
 -5.052175149151631e-06    9    2    8    5
 -0.0007720319860893838    9    2    8    6
 0.001128427967529011    9    2    8    8
 0.0003015174421107498    9    2    9    1
 0.1147864342763567    9    2    9    2
 -0.008951645634575702    9    3    1    1
 2.010972817568768e-05    9    3    2    1
 -0.00900491228743752    9    3    2    2
 -0.001991256353509056    9    3    3    1
 0.0009799934962524102    9    3    3    2
 -0.01913250925972681    9    3    3    3
 -0.0009960244086117032    9    3    4    1
 -0.001990166834330602    9    3    4    2
 8.047497419133332e-08    9    3    4    3
 -0.01904685969611942    9    3    4    4
 -0.009120198804058042    9    3    5    5
 -0.009120198804056427    9    3    6    6
 -3.290218523950537e-05    9    3    7    5
 2.153118095797182e-07    9    3    7    6
 -0.009140489681823433    9    3    7    7
 -2.15311806146055e-07    9    3    8    5
 -3.290218523890594e-05    9    3    8    6
 -0.009140489681825223    9    3    8    8
 0.1042030782023787    9    3    9    1
 -0.05111301574844661    9    3    9    2
 0.3288099894440173    9    3    9    3
 0.008234576460016456    9    4    1    1
 0.006234731654248062    9    4    2    1
 -0.008259819546665713    9    4    2    2
 -0.0009888680419460768    9    4    3    1
 -0.001975813427883505    9    4    3    2
 -2.424059776552534e-05    9    4    3    3
 -0.001983360072023761    9    4    4    1
 0.0009864742481525586    9    4    4    2
 0.00032660567012283    9    4    4    3
 -2.55069687109016e-05    9    4    4    4
 6.885350943457073e-05    9    4    5    5
 1.714114122581176e-12    9    4    6    5
 6.885350994434216e-05    9    4    6    6
 -0.01009321684516274    9    4    7    5
 6.604998271878164e-05    9    4    7    6
 -9.33543745697566e-05    9    4    7    7
 -6.604998269128673e-05    9    4    8    5
 -0.01009321684515844    9    4    8    6
 -1.710624949454108e-12    9    4    8    7
 -9.335437512447695e-05    9    4    8    8
 0.0518930051060025    9    4    9    1
 0.1033440242950923    9    4    9    2
 0.001525402280127725    9    4    9    3
 0.326146427366702    9    4    9    4
 0.001538567395099326    9    5    5    1
 -0.0007460985872502487    9    5    5    2
 0.003429790174727004    9    5    5    3
 3.096686485610548e-05    9    5    5    4
 -0.0007648146084759964    9    5    7    1
 -0.001528566849739916    9    5    7    2
 -1.053675753631092e-05    9    5    7    3
 -0.003433964091214717    9    5    7    4
 -5.004944648497517e-06    9    5    8    1
 -1.000293717306099e-05    9    5    8    2
 -6.895250160126517e-08    9    5    8    3
 -2.247185136986447e-05    9    5    8    4
 0.1002489158405717    9    5    9    5
 0.001538567395137714    9    6    6    1
 -0.0007460985871735162    9    6    6    2
 0.003429790174727508    9    6    6    3
 3.096686502672464e-05    9    6    6    4
 5.004944653868593e-06    9    6    7    1
 1.000293717554859e-05    9    6    7    2
 6.895252192659895e-08    9    6    7    3
 2.247185137899614e-05    9    6    7    4
 -0.0007648146084751542    9    6    8    1
 -0.001528566849739526    9    6    8    2
 -1.053675753311707e-05    9    6    8    3
 -0.003433964091213271    9    6    8    4
 0.1002489158405952    9    6    9    6
 -0.0007555176385885538    9    7    5    1
 -0.001509795257645135    9    7    5    2
 -1.065401879508661e-05    9    7    5    3
 -0.003322860297817202    9    7    5    4
 4.944105309019577e-06    9    7    6    1
 9.880095929570076e-06    9    7    6    2
 6.971987927298497e-08    9    7    6    3
 2.174478846685241e-05    9    7    6    4
 0.001506906837407162    9    7    7    1
 -0.0007607909099473683    9    7    7    2
 0.003310003973744546    9    7    7    3
 -2.297884982616365e-05    9    7    7    4
 -0.0004678675894005341    9    7    9    5
 3.061724191637076e-06    9    7    9    6
 0.100251014262866    9    7    9    7
 -4.944105303653354e-06    9    8    5    1
 -9.88009592707774e-06    9    8    5    2
 -6.97198589636722e-08    9    8    5    3
 -2.174478845771635e-05    9    8    5    4
 -0.0007555176385877071    9    8    6    1
 -0.001509795257644752    9    8    6    2
 -1.065401879187129e-05    9    8    6    3
 -0.00332286029781577    9    8    6    4
 0.001506906837365383    9    8    8    1
 -0.00076079091003086    9    8    8    2
 0.003310003973743965    9    8    8    3
 -2.297885001187782e-05    9    8    8    4
 -3.061724192019972e-06    9    8    9    5
 -0.000467867589400554    9    8    9    6
 0.1002510142628402    9    8    9    8
 2.532828120815528    9    9    1    1
 0.006110733325876304    9    9    2    1
 2.516663541311115    9    9    2    2
 -0.05313159337135319    9    9    3    1
 0.02606082631780121    9    9    3    2
 1.836197969152417    9    9    3    3
 -0.02655751679267977    9    9    4    1
 -0.05288854907225141    9    9    4    2
 0.006915007273755261    9    9    4    3
 1.835987720142154    9    9    4    4
 1.842169558275449    9    9    5    5
 1.179773532115018e-12    9    9    6    5
 1.842169558275799    9    9    6    6
 -0.00694874696866868    9    9    7    5
 4.547258067383301e-05    9    9    7    6
 1.84199907983399    9    9    7    7
 -4.547258064468588e-05    9    9    8    5
 -0.006948746968663949    9    9    8    6
 -1.17763020381202e-12    9    9    8    7
 1.841999079833606    9    9    8    8
 0.0006877108866539237    9    9    9    1
 -0.0003181464648720932    9    9    9    2
 -0.002786252273839716    9    9    9    3
 7.43510495303899e-05    9    9    9    4
 2.043064346534174    9    9    9    9
 0.01637179405375923   10    1    1    1
 0.006921222706029059   10    1    2    1
 -0.001938694457837401   10    1    2    2
 -0.001539385207934762   10    1    3    1
 -0.001166283005932506   10    1    3    2
 0.002820018764782766   10    1    3    3
 -0.001920687185967452   10    1    4    1
 4.473596879664978e-06   10    1    4    2
 0.00258265057315613   10    1    4    3
 0.002803534323401684   10    1    4    4
 0.001119043980685559   10    1    5    5
 0.00111904398064582   10    1    6    6
 0.00078699349869127   10    1    7    5
 -5.15008324774357e-06   10    1    7    6
 0.001133790559878512   10    1    7    7
 5.150083245248222e-06   10    1    8    5
 0.0007869934986908696   10    1    8    6
 0.001133790559921777   10    1    8    8
 -0.09195429270250033   10    1    9    1
 -0.06948224143173282   10    1    9    2
 -0.05184049161063656   10    1    9    3
 -0.103494347481684   10    1    9    4
 -0.0003643153844397334   10    1    9    9
 0.1148646796941337   10    1   10    1
 0.01000615592481115   10    2    1    1
 -0.003464839498030711   10    2    2    1
 0.01917274991267019   10    2    2    2
 -0.001165290950696941   10    2    3    1
 0.001544786788621143   10    2    3    2
 0.005686817113305959   10    2    3    3
 4.47471564014003e-06   10    2    4    1
 -0.001930833189510067   10    2    4    2
 -0.001292797957976162   10    2    4    3
 0.005680915852637137   10    2    4    4
 0.002278055812081793   10    2    5    5
 0.002278055812101694   10    2    6    6
 -0.000393891610949537   10    2    7    5
 2.577625596650274e-06   10    2    7    6
 0.002275973055495025   10    2    7    7
 -2.577625596297796e-06   10    2    8    5
 -0.0003938916109494938   10    2    8    6
 0.002275973055473368   10    2    8    8
 -0.06954939992210249   10    2    9    1
 0.0919538997998908   10    2    9    2
 -0.1039060211810641   10    2    9    3
 0.05163585411118187   10    2    9    4
 -0.0006915702923287747   10    2    9    9
 -0.0002936667454899952   10    2   10    1
 0.1157692832010428   10    2   10    2
 -0.007700978458313413   10    3    1    1
 -0.005813490417237275   10    3    2    1
 0.00767899576403029   10    3    2    2
 0.0009697789639695727   10    3    3    1
 0.001950168423632366   10    3    3    2
 -2.398980089829867e-05   10    3    3    3
 0.001952709768287309   10    3    4    1
 -0.0009774935776775098   10    3    4    2
 0.0001534048732611846   10    3    4    3
 -2.452543817723622e-05   10    3    4    4
 -8.842279746278125e-05   10    3    5    5
 -1.627507323609668e-12   10    3    6    5
 -8.842279794679386e-05   10    3    6    6
 0.009583248957255038   10    3    7    5
 -6.271275429099431e-05   10    3    7    6
 6.554011336466162e-05   10    3    7    7
 6.271275426489904e-05   10    3    8    5
 0.009583248957250949   10    3    8    6
 1.624191954836919e-12   10    3    8    7
 6.554011389135785e-05   10    3    8    8
 -0.05166537390372297   10    3    9    1
 -0.1035532668826645   10    3    9    2
 -0.0006845911908424689   10    3    9    3
 -0.326451850607849   10    3    9    4
 -7.970087814795217e-05   10    3    9    9
 0.1034399304447573   10    3   10    1
 -0.05194115193845637   10    3   10    2
 0.3267600996594118   10    3   10    3
 0.009487086301572948   10    4    1    1
 2.068034660906159e-05   10    4    2    1
 0.009432439241088207   10    4    2    2
 0.001947955926225101   10    4    3    1
 -0.000975086186420177   10    4    3    2
 0.01931695094134885   10    4    3    3
 0.0009644942266884732   10    4    4    1
 0.001960136408762155   10    4    4    2
 5.063128911851847e-07   10    4    4    3
 0.01923178080170307   10    4    4    4
 0.009359696474908126   10    4    5    5
 0.009359696474909864   10    4    6    6
 -3.371403655445652e-05   10    4    7    5
 2.206245589549905e-07   10    4    7    6
 0.009378874935191839   10    4    7    7
 -2.206245622003805e-07   10    4    8    5
 -3.371403655502443e-05   10    4    8    6
 0.009378874935189975   10    4    8    8
 -0.1038133444937576   10    4    9    1
 0.05179412928822755   10    4    9    2
 -0.3285452198654352   10    4    9    3
 0.0006843574942934804   10    4    9    4
 0.002945346458986745   10    4    9    9
 0.05112051219319143   10    4   10    1
 0.1042175079541356   10    4   10    2
 -0.00152658816536957   10    4   10    3
 0.3282961472442298   10    4   10    4
 -0.0007389313729861801   10    5    5    1
 -0.001464175203291361   10    5    5    2
 -2.125194277766586e-05   10    5    5    3
 -0.003186655192037282   10    5    5    4
 0.001466228834822752   10    5    7    1
 -0.000734002316993148   10    5    7    2
 0.00317369919438508   10    5    7    3
 -1.098460001996557e-05   10    5    7    4
 9.594997378263653e-06   10    5    8    1
 -4.803309099977029e-06   10    5    8    2
 2.076867861573891e-05   10    5    8    3
 -7.188318391171626e-08   10    5    8    4
 -0.0008055936220389905   10    5    9    5
 -1.702665631760501e-11   10    5    9    6
 0.1002651032202186   10    5    9    7
 0.0006561345539117835   10    5    9    8
 0.1002847043156256   10    5   10    5
 -0.000738931373060614   10    6    6    1
 -0.001464175203254092   10    6    6    2
 -2.125194294047999e-05   10    6    6    3
 -0.003186655192036697   10    6    6    4
 -9.594997381051086e-06   10    6    7    1
 4.803309104430766e-06   10    6    7    2
 -2.076867862444202e-05   10    6    7    3
 7.188319952407133e-08   10    6    7    4
 0.00146622883482231   10    6    8    1
 -0.0007340023169924583   10    6    8    2
 0.003173699194383701   10    6    8    3
 -1.098460001757398e-05   10    6    8    4
 -1.702666798173199e-11   10    6    9    5
 -0.0008055936271029306   10    6    9    6
 -0.0006561345541851012   10    6    9    7
 0.1002651032201761   10    6    9    8
 0.1002847043156019   10    6   10    6
 0.001481394486751324   10    7    5    1
 -0.0007414944059829454   10    7    5    2
 0.003274074624687122   10    7    5    3
 -1.083103070332681e-05   10    7    5    4
 -9.694241364705124e-06   10    7    6    1
 4.852337313752532e-06   10    7    6    2
 -2.142553515860674e-05   10    7    6    3
 7.087824234953147e-08   10    7    6    4
 -0.0007224815214034238   10    7    7    1
 -0.001490449265883033   10    7    7    2
 3.017526581227861e-05   10    7    7    3
 -0.003278700451874006   10    7    7    4
 0.1002498158711951   10    7    9    5
 -0.0006560345138159815   10    7    9    6
 0.0008054628258245942   10    7    9    7
 1.699208303986901e-11   10    7    9    8
 0.0004679130830193638   10    7   10    5
 -3.062021900790488e-06   10    7   10    6
 0.100271272947741   10    7   10    7
 9.694241361918649e-06   10    8    5    1
 -4.85233730929227e-06   10    8    5    2
 2.142553514989885e-05   10    8    5    3
 -7.087822672097318e-08   10    8    5    4
 0.001481394486750883   10    8    6    1
 -0.0007414944059822632   10    8    6    2
 0.003274074624685754   10    8    6    3
 -1.083103070095402e-05   10    8    6    4
 -0.000722481521322425   10    8    8    1
 -0.001490449265923579   10    8    8    2
 3.017526598950049e-05   10    8    8    3
 -0.003278700451874606   10    8    8    4
 0.0006560345135426702   10    8    9    5
 0.1002498158711525   10    8    9    6
 1.699206964343615e-11   10    8    9    7
 0.0008054628313338265   10    8    9    8
 3.062021903076069e-06   10    8   10    5
 0.0004679130830197626   10    8   10    6
 0.1002712729477666   10    8   10    8
 -1.732135119817451   10    9    1    1
 -1.309461216916517   10    9    2    1
 1.732131340809927   10    9    2    2
 0.02644682975134532   10    9    3    1
 0.05300679611748137   10    9    3    2
 -0.003120210914685274   10    9    3    3
 0.0530274592114892   10    9    4    1
 -0.0264568591441913   10    9    4    2
 -1.481952111866693   10    9    4    3
 0.003118572327846994   10    9    4    4
 -0.01196540118365706   10    9    5    5
 -2.529087311225984e-10   10    9    6    5
 -0.01196540125887505   10    9    6    6
 1.489192467848862   10    9    7    5
 -0.009745271331758683   10    9    7    6
 0.01196366050829467   10    9    7    7
 0.00974527132769888   10    9    8    5
 1.48919246784823   10    9    8    6
 2.52394857807562e-10   10    9    8    7
 0.0119636605901269   10    9    8    8
 -0.001892262375482911   10    9    9    1
 -0.003780445060465392   10    9    9    2
 -5.599255171458676e-05   10    9    9    3
 -0.01677842007236563   10    9    9    4
 -0.007881180929940395   10    9    9    9
 0.003800936424626819   10    9   10    1
 -0.00190245135269881   10    9   10    2
 0.01635187099548144   10    9   10    3
 -5.617414902883775e-05   10    9   10    4
 1.688742579740789   10    9   10    9
 2.517472376152375   10   10    1    1
 -0.00610988060869806   10   10    2    1