 &FCI NORB=  10,NELEC=12,MS2=0,
  ORBSYM=1,1,1,1,1,1,1,1,1,1,
  ISYM=1,
 &END
 1.992717983214316    1    1    1    1
 -1.785717164173772e-11    2    1    1    1
 1.512766126977227    2    1    2    1
 1.99427012890975    2    2    1    1
 1.783977938635876e-11    2    2    2    1
 1.995825109707974    2    2    2    2
 -0.1877996343131115    3    1    1    1
 1.165415978217968e-12    3    1    2    1
 -0.1880723357688709    3    1    2    2
 0.03504783541544113    3    1    3    1
 1.21735720311516e-12    3    2    1    1
 -0.1968716940558176    3    2    2    1
 -3.429847893398934e-12    3    2    2    2
 0.03483833516790464    3    2    3    2
 0.7275459841445403    3    3    1    1
 0.7274947897861036    3    3    2    2
 -0.001508499253697407    3    3    3    1
 0.6535507191377857    3    3    3    3
 0.009668586035479328    4    1    4    1
 0.008771084462817103    4    2    4    2
 0.01773693826648216    4    3    4    1
 0.1028644603381264    4    3    4    3
 0.6276030814866245    4    4    1    1
 0.6276168662792028    4    4    2    2
 -0.001643111919261223    4    4    3    1
 0.5606202169549124    4    4    3    3
 0.5387005919281647    4    4    4    4
 0.009668586035479324    5    1    5    1
 0.008771084462817101    5    2    5    2
 0.01773693826648215    5    3    5    1
 0.1028644603381263    5    3    5    3
 0.0228124169899743    5    4    5    4
 0.6276030814866242    5    5    1    1
 0.6276168662792025    5    5    2    2
 -0.001643111919261207    5    5    3    1
 0.5606202169549119    5    5    3    3
 0.4930757579482159    5    5    4    4
 0.5387005919281642    5    5    5    5
 -2.862625510851824e-12    6    1    1    1
 0.1585097905846192    6    1    2    1
 -0.02644887770166304    6    1    3    2
 0.02623239736718201    6    1    6    1
 0.1684965157020918    6    2    1    1
 0.1687282637774541    6    2    2    2
 -0.02611035556326912    6    2    3    1
 0.02000335835177077    6    2    3    3
 0.008456159343694754    6    2    4    4
 0.008456159343694751    6    2    5    5
 0.02669077781263954    6    2    6    2
 1.816907640512896e-12    6    3    1    1
 -0.1542893308266835    6    3    2    1
 -1.823838746010178e-12    6    3    2    2
 0.01035682490457694    6    3    3    2
 -0.003786754284684629    6    3    6    1
 0.05529304067288387    6    3    6    3
 -0.009839322064848171    6    4    4    2
 0.04114516426286685    6    4    6    4
 -0.009839322064848168    6    5    5    2
 0.04114516426286684    6    5    6    5
 0.5993212386668888    6    6    1    1
 0.5994262860592079    6    6    2    2
 -0.01291536709202706    6    6    3    1
 0.4639555568734405    6    6    3    3
 0.4583370442955424    6    6    4    4
 0.4583370442955421    6    6    5    5
 0.004066813042828249    6    6    6    2
 0.4935200337607905    6    6    6    6
 -0.05423070106689108    7    1    1    1
 -0.05429210555719337    7    1    2    2
 0.002650303755139668    7    1    3    1
 -0.02533841330174344    7    1    3    3
 -0.009996073360661209    7    1    4    4
 -0.009996073360661203    7    1    5    5
 -0.01174528332335002    7    1    6    2
 0.005852519285605815    7    1    6    6
 0.01340836153378476    7    1    7    1
 -0.03375174757613528    7    2    2    1
 0.003362509736324812    7    2    3    2
 -0.01091078417028016    7    2    6    1
 -0.003949767231533356    7    2    6    3
 0.01169591821645946    7    2    7    2
 -0.0824210694291392    7    3    1    1
 -0.08231135416029911    7    3    2    2
 -0.00690914938832697    7    3    3    1
 -0.104209312536478    7    3    3    3
 -0.05359846412841124    7    3    4    4
 -0.05359846412841121    7    3    5    5
 -0.007406257037803245    7    3    6    2
 0.000920996655368554    7    3    6    6
 0.01605930778871721    7    3    7    1
 0.05734833341251533    7    3    7    3
 0.00258605976706085    7    4    4    1
 0.005115180471185951    7    4    4    3
 0.02276147468408669    7    4    7    4
 0.002586059767060849    7    5    5    1
 0.005115180471185951    7    5    5    3
 0.02276147468408668    7    5    7    5
 2.423088218119837e-12    7    6    1    1
 -0.2052509672108883    7    6    2    1
 -2.420163076015672e-12    7    6    2    2
 0.01313108432327904    7    6    3    2
 0.004020143377020583    7    6    6    1
 0.08846922561379658    7    6    6    3
 -0.01675056492872389    7    6    7    2
 0.1889558085165981    7    6    7    6
 0.6369920201400053    7    7    1    1
 0.6370055860568246    7    7    2    2
 -0.007802556583552765    7    7    3    1
 0.5096743190626679    7    7    3    3
 0.4774415925114556    7    7    4    4
 0.4774415925114553    7    7    5    5
 0.005030008506314667    7    7    6    2
 0.5045453001424487    7    7    6    6
 -0.0001358429393370928    7    7    7    1
 -0.02595425322592967    7    7    7    3
 0.5368798900237494    7    7    7    7
 0.008839460886694843    8    1    4    2
 0.006735171551058333    8    1    5    2
 -0.00974339878902615    8    1    6    4
 -0.007423921342673917    8    1    6    5
 0.01411486795961733    8    1    8    1
 0.009534658802624604    8    2    4    1
 0.01575378076047042    8    2    4    3
 0.007264873224694666    8    2    5    1
 0.01200349403199904    8    2    5    3
 0.003093307532997908    8    2    7    4
 0.002356926192895    8    2    7    5
 0.01496549801311767    8    2    8    2
 0.008673672258733226    8    3    4    2
 0.00660884995013165    8    3    5    2
 -0.0298483951040368    8    3    6    4
 -0.02274279666218717    8    3    6    5
 0.01329075262238992    8    3    8    1
 0.04041953415989905    8    3    8    3
 -2.137326938271406e-12    8    4    1    1
 0.1811457610172148    8    4    2    1
 2.137141922196635e-12    8    4    2    2
 -0.007916907306186285    8    4    3    2
 0.001288742852386139    8    4    6    1
 -0.06843262537974114    8    4    6    3
 0.004815460411542519    8    4    7    2
 -0.1031125462071628    8    4    7    6
 0.104139227565993    8    4    8    4
 -1.628832565120729e-12    8    5    1    1
 0.1380228717380687    8    5    2    1
 1.628072383681576e-12    8    5    2    2
 -0.006032237660698466    8    5    3    2
 0.0009819494997806778    8    5    6    1
 -0.05214180791450982    8    5    6    3
 0.003669109732459695    8    5    7    2
 -0.0785659551723344    8    5    7    6
 0.06683681246078042    8    5    8    4
 0.06734628272528997    8    5    8    5
 -0.0118540968998608    8    6    4    1
 -0.05466062580740642    8    6    4    3
 -0.009032154474896253    8    6    5    1
 -0.04164831957741066    8    6    5    3
 -0.02183476953707423    8    6    7    4
 -0.01663686513182875    8    6    7    5
 -0.01785074659283154    8    6    8    2
 0.07268513635246435    8    6    8    6
 0.004479047079450246    8    7    4    2
 0.003412781712827284    8    7    5    2
 -0.02489286160668557    8    7    6    4
 -0.01896695912418588    8    7    6    5
 0.007325660243973637    8    7    8    1
 0.02167318076771894    8    7    8    3
 0.0314996980218688    8    7    8    7
 0.6637142566567509    8    8    1    1
 0.6637983205221668    8    8    2    2
 -0.007051033094753116    8    8    3    1
 0.5401157054555913    8    8    3    3
 0.5179680333711539    8    8    4    4
 0.020049252839814    8    8    5    4
 0.5069311357892193    8    8    5    5
 0.007931444691314947    8    8    6    2
 0.4846492095692656    8    8    6    6
 -0.004710943760917733    8    8    7    1
 -0.03309351330432231    8    8    7    3
 0.4973175129586046    8    8    7    7
 0.5500813775110072    8    8    8    8
 -0.006735171551058335    9    1    4    2
 0.008839460886694839    9    1    5    2
 0.00742392134267392    9    1    6    4
 -0.009743398789026147    9    1    6    5
 0.01411486795961732    9    1    9    1
 -0.007264873224694668    9    2    4    1
 -0.01200349403199904    9    2    4    3
 0.009534658802624597    9    2    5    1
 0.01575378076047042    9    2    5    3
 -0.002356926192895002    9    2    7    4
 0.003093307532997907    9    2    7    5
 0.01496549801311766    9    2    9    2
 -0.006608849950131652    9    3    4    2
 0.008673672258733221    9    3    5    2
 0.02274279666218717    9    3    6    4
 -0.02984839510403679    9    3    6    5
 0.01329075262238991    9    3    9    1
 0.04041953415989903    9    3    9    3
 1.628902176256507e-12    9    4    1    1
 -0.1380228717380687    9    4    2    1
 -1.627974824361416e-12    9    4    2    2
 0.006032237660698453    9    4    3    2
 -0.0009819494997806652    9    4    6    1
 0.05214180791450983    9    4    6    3
 -0.003669109732459699    9    4    7    2
 0.07856595517233445    9    4    7    6
 -0.06683681246078051    9    4    8    4
 -0.03450549389761397    9    4    8    5
 0.06734628272528999    9    4    9    4
 -2.137605468515387e-12    9    5    1    1
 0.1811457610172147    9    5    2    1
 2.136863819959922e-12    9    5    2    2
 -0.007916907306186277    9    5    3    2
 0.001288742852386135    9    5    6    1
 -0.0684326253797411    9    5    6    3
 0.004815460411542523    9    5    7    2
 -0.1031125462071627    9    5    7    6
 0.07129843873831704    9    5    8    4
 0.06683681246078048    9    5    8    5
 -0.06683681246078042    9    5    9    4
 0.1041392275659929    9    5    9    5
 0.009032154474896255    9    6    4    1
 0.04164831957741068    9    6    4    3
 -0.01185409689986079    9    6    5    1
 -0.0546606258074064    9    6    5    3
 0.01663686513182875    9    6    7    4
 -0.02183476953707423    9    6    7    5
 -0.01785074659283153    9    6    9    2
 0.07268513635246432    9    6    9    6
 -0.003412781712827286    9    7    4    2
 0.004479047079450244    9    7    5    2
 0.01896695912418588    9    7    6    4
 -0.02489286160668556    9    7    6    5
 0.007325660243973633    9    7    9    1
 0.02167318076771894    9    7    9    3
 0.03149969802186878    9    7    9    7
 -0.02004925283981417    9    8    4    4
 0.005518448790967188    9    8    5    4
 0.02004925283981406    9    8    5    5
 0.02286543064110217    9    8    9    8
 0.6637142566567505    9    9    1    1
 0.6637983205221666    9    9    2    2
 -0.00705103309475311    9    9    3    1
 0.540115705455591    9    9    3    3
 0.5069311357892192    9    9    4    4
 -0.02004925283981417    9    9    5    4
 0.5179680333711535    9    9    5    5
 0.007931444691314947    9    9    6    2
 0.4846492095692653    9    9    6    6
 -0.004710943760917718    9    9    7    1
 -0.03309351330432232    9    9    7    3
 0.4973175129586044    9    9    7    7
 0.5043505162288026    9    9    8    8
 0.5500813775110066    9    9    9    9
 -2.25507822269438e-12   10    1    1    1
 0.1342543634423677   10    1    2    1
 -0.02804067098841773   10    1    3    2
 0.01225809089027702   10    1    6    1
 -0.0103301907420231   10    1    6    3
 0.009646118646349228   10    1    7    2
 -0.02481245520161898   10    1    7    6
 0.00792462584278855   10    1    8    4
 0.00603811875105067   10    1    8    5
 -0.006038118751050672   10    1    9    4
 0.007924625842788547   10    1    9    5
 0.03650846550013508   10    1   10    1
 0.1138258405101622   10    2    1    1
 0.1139864935710376   10    2    2    2
 -0.02871460435155312   10    2    3    1
 -0.01939204790884222   10    2    3    3
 -0.007705265463460098   10    2    4    4
 -0.007705265463460096   10    2    5    5
 0.01149941411281084   10    2    6    2
 0.01623615543312771   10    2    6    6
 0.01128426906968477   10    2    7    1
 0.01858671270521926   10    2    7    3
 0.008113458834226643   10    2    7    7
 0.0006006333686741335   10    2    8    8
 0.0006006333686741329   10    2    9    9
 0.03801715803920552   10    2   10    2
 2.197546995142068e-12   10    3    1    1
 -0.1862549325555139   10    3    2    1
 -2.197437044169624e-12   10    3    2    2
 0.00771192131935649   10    3    3    2
 -0.01068805062337729   10    3    6    1
 0.04738806718155338   10    3    6    3
 0.007993464288012004   10    3    7    2
 0.04316266167473655   10    3    7    6
 -0.06475135125166945   10    3    8    4
 -0.04933688427755414   10    3    8    5
 0.04933688427755415   10    3    9    4
 -0.06475135125166942   10    3    9    5
 0.00392951702755218   10    3   10    1
 0.08034875966045779   10    3   10    3
 -0.008538483905458796   10    4    4    2
 0.02164028199598766   10    4    6    4
 -0.00804046741962882   10    4    8    1
 -0.02475977001490902   10    4    8    3
 -0.002984290469003708   10    4    8    7
 0.006126383510945554   10    4    9    1
 0.01886555082405213   10    4    9    3
 0.002273861327581915   10    4    9    7
 0.03247288418098639   10    4   10    4
 -0.008538483905458791   10    5    5    2
 0.02164028199598765   10    5    6    5
 -0.006126383510945552   10    5    8    1
 -0.01886555082405212   10    5    8    3
 -0.002273861327581919   10    5    8    7
 -0.008040467419628819   10    5    9    1
 -0.02475977001490902   10    5    9    3
 -0.002984290469003714   10    5    9    7
 0.03247288418098637   10    5   10    5
 0.03188078618683993   10    6    1    1
 0.03188304108864232   10    6    2    2
 0.002311291814101223   10    6    3    1
 0.05215072861005705   10    6    3    3
 0.03362827118805849   10    6    4    4
 0.03362827118805848   10    6    5    5
 0.006769172487562827   10    6    6    2
 -0.02199602582263013   10    6    6    6
 -0.01099663406568682   10    6    7    1
 -0.0271299805812957   10    6    7    3
 -0.02424972869240084   10    6    7    7
 0.02024779033778614   10    6    8    8
 0.02024779033778612   10    6    9    9
 -0.0126717560001572   10    6   10    2
 0.03967622066071282   10    6   10    6
 -2.128130573542286e-12   10    7    1    1
 0.1801680423449517   10    7    2    1
 2.123236714463765e-12   10    7    2    2
 -0.008994485020985236   10    7    3    2
 0.002483054805607046   10    7    6    1
 -0.05245677445444547   10    7    6    3
 0.004205286113781964   10    7    7    2
 -0.1066469686684013   10    7    7    6
 0.06313320587919313   10    7    8    4
 0.04810394860219144   10    7    8    5
 -0.04810394860219146   10    7    9    4
 0.06313320587919311   10    7    9    5
 0.0103267850367708   10    7   10    1
 -0.04839277481684332   10    7   10    3
 0.08313910928880747   10    7   10    7
 -0.009395802570073199   10    8    4    1
 -0.04796044497279033   10    8    4    3
 -0.007159072592828638   10    8    5    1
 -0.03654315898869449   10    8    5    3
 0.002832326872080518   10    8    7    4
 0.002158073621983917   10    8    7    5
 -0.01317882256512664   10    8    8    2
 0.03447298262574237   10    8    8    6
 0.04509266232029908   10    8   10    8
 0.007159072592828638   10    9    4    1
 0.03654315898869451   10    9    4    3
 -0.009395802570073195   10    9    5    1
 -0.0479604449727903   10    9    5    3
 -0.00215807362198392   10    9    7    4
 0.002832326872080515   10    9    7    5
 -0.01317882256512663   10    9    9    2
 0.03447298262574235   10    9    9    6
 0.04509266232029906   10    9   10    9
 0.8245060814159151   10   10    1    1
 0.8245494337233075   10   10    2    2
 -0.009317597126278023   10   10    3    1
 0.6437673845905709   10   10    3    3
 0.5650276922183832   10   10    4    4
 0.565027692218383   10   10    5    5
 0.0215342100978293   10   10    6    2
 0.5079736861268672   10   10    6    6
 -0.0208648145153511   10   10    7    1
 -0.08619156088015392   10   10    7    3
 0.5553451157077685   10   10    7    7
 0.5661109106266826   10   10    8    8
 0.5661109106266824   10   10    9    9
 -0.009780425983135442   10   10   10    2
 0.02778262300193859   10   10   10    6
 0.6822093345028999   10   10   10   10
 -20.63464144459527    1    1  0  0
 -20.63385303075858    2    2  0  0
 0.4326714152347408    3    1  0  0
 2.549053595699202e-12    3    2  0  0
 -7.440011187192106    3    3  0  0
 -6.321075648501496    4    4  0  0
 -6.321075648501492    5    5  0  0
 2.561894272134218e-12    6    1  0  0
 -0.434431490678819    6    2  0  0
 -5.871467076694509    6    6  0  0
 0.2103023593477443    7    1  0  0
 1.251444250967737e-12    7    2  0  0
 0.7509384248682823    7    3  0  0
 -6.151610880159708    7    7  0  0
 -6.03353773346566    8    8  0  0
 -6.033537733465657    9    9  0  0
 1.013528560851909e-12   10    1  0  0
 -0.1728468388503398   10    2  0  0
 -0.2299200364551986   10    6  0  0
 -6.168871355535233   10   10  0  0
 17.31852690283636  0  0  0  0
