 &FCI NORB=   7,NELEC=10,MS2=0,
  ORBSYM=1,1,1,1,1,1,1,
  ISYM=1,
 &END
 4.744505312154997    1    1    1    1
 -0.4166567990923731    2    1    1    1
 0.05817684482234087    2    1    2    1
 1.004574870472881    2    2    1    1
 -0.01297289002093597    2    2    2    1
 0.7281701263942417    2    2    2    2
 0.01099438439010129    3    1    3    1
 0.01776499353943254    3    2    3    1
 0.1444191858497455    3    2    3    2
 0.7999304171329943    3    3    1    1
 -0.004406283335631201    3    3    2    1
 0.6451438090150142    3    3    2    2
 0.6329857210078694    3    3    3    3
 -0.1835966915787466    4    1    1    1
 0.02249790711894395    4    1    2    1
 -0.01605176666276964    4    1    2    2
 -0.006469096917880874    4    1    3    3
 0.02777284931959961    4    1    4    1
 0.1284623436580618    4    2    1    1
 -0.009212364366605413    4    2    2    1
 -0.004070161338273321    4    2    2    2
 -0.006903987182149066    4    2    3    3
 0.01892096665986322    4    2    4    1
 0.1240556423430968    4    2    4    2
 0.003439420377827285    4    3    3    1
 -0.01998111624215813    4    3    3    2
 0.04725737013485913    4    3    4    3
 0.9997707913090829    4    4    1    1
 -0.01356454792576899    4    4    2    1
 0.6756423849864794    4    4    2    2
 0.598489777766524    4    4    3    3
 0.01136200232143716    4    4    4    1
 0.1044464725361877    4    4    4    2
 0.782636978670744    4    4    4    4
 0.02604454407301979    5    1    5    1
 0.03246200180207787    5    2    5    1
 0.1444653214823103    5    2    5    2
 0.02880001991107919    5    3    5    3
 0.01345017513233172    5    4    5    1
 0.0469088576527719    5    4    5    2
 0.05591041695820049    5    4    5    4
 1.115336271963271    5    5    1    1
 -0.01169439637799373    5    5    2    1
 0.7474056673132097    5    5    2    2
 0.6288776954694579    5    5    3    3
 -0.005118261587888391    5    5    4    1
 0.0688086620409938    5    5    4    2
 0.7288776751436084    5    5    4    4
 0.8801590933750453    5    5    5    5
 -0.2379642459873665    6    1    1    1
 0.0357951701056298    6    1    2    1
 -0.0007824352379553841    6    1    2    2
 0.0002004850461073252    6    1    3    3
 0.0005620668522000598    6    1    4    1
 -0.02034480725299792    6    1    4    2
 -0.01923646838008172    6    1    4    4
 -0.006208142562481363    6    1    5    5
 0.03130931638509996    6    1    6    1
 0.3082974393136771    6    2    1    1
 -0.006646271024521644    6    2    2    1
 0.1429042068828513    6    2    2    2
 0.07587274830340826    6    2    3    3
 -0.01865157998991083    6    2    4    1
 -0.02096798178333346    6    2    4    2
 0.08818616244603025    6    2    4    4
 0.1585775056969086    6    2    5    5
 0.006811260914939631    6    2    6    1
 0.1018901027926277    6    2    6    2
 0.003149459422683131    6    3    3    1
 -0.04010539538541078    6    3    3    2
 0.02861397682276415    6    3    4    3
 0.07092212870689224    6    3    6    3
 -0.2194079892982539    6    4    1    1
 0.002234960289867987    6    4    2    1
 -0.0954643968242475    6    4    2    2
 -0.04325010349251442    6    4    3    3
 0.002338321216506493    6    4    4    1
 -0.0314300348769996    6    4    4    2
 -0.1213863258591049    6    4    4    4
 -0.1163101523806459    6    4    5    5
 0.0002855091291537908    6    4    6    1
 -0.06097304943589306    6    4    6    2
 0.06874078100541658    6    4    6    4
 0.01574668954805293    6    5    5    1
 0.05910628314738387    6    5    5    2
 0.001740519070327111    6    5    5    4
 0.0385899211688809    6    5    6    5
 0.8026928973817018    6    6    1    1
 -0.006978989439389265    6    6    2    1
 0.6141617059171164    6    6    2    2
 0.5714432650580202    6    6    3    3
 -0.02118857322887452    6    6    4    1
 -0.05857905868750288    6    6    4    2
 0.5490733711969927    6    6    4    4
 0.5889480555196918    6    6    5    5
 0.008408977706665313    6    6    6    1
 0.09678767462988781    6    6    6    2
 -0.04459738233737627    6    6    6    4
 0.5971308791227968    6    6    6    6
 0.01531468703542505    7    1    3    1
 0.02310286312218928    7    1    3    2
 0.004959092137141818    7    1    4    3
 0.003863022263560546    7    1    6    3
 0.02139027053146516    7    1    7    1
 0.01387824959521998    7    2    3    1
 0.04034652336167604    7    2    3    2
 0.0340793425707797    7    2    4    3
 0.03533061086074012    7    2    6    3
 0.01830755253000378    7    2    7    1
 0.06191200365363637    7    2    7    2
 0.3624115210642866    7    3    1    1
 -0.007503381125363468    7    3    2    1
 0.1383084651001459    7    3    2    2
 0.09041020731965202    7    3    3    3
 0.0008237215907820118    7    3    4    1
 0.07624759760554572    7    3    4    2
 0.1600228839078572    7    3    4    4
 0.1898227366514641    7    3    5    5
 -0.006986551679314664    7    3    6    1
 0.07673589239788586    7    3    6    2
 -0.07849154681222183    7    3    6    4
 0.03795226044981185    7    3    6    6
 0.1524934650063391    7    3    7    3
 0.009634199725185763    7    4    3    1
 0.07710107760895543    7    4    3    2
 0.002271322189177222    7    4    4    3
 -0.04445450813144861    7    4    6    3
 0.01319881158664017    7    4    7    1
 0.01667132299621522    7    4    7    2
 0.06897686626192359    7    4    7    4
 0.02368785865600489    7    5    5    3
 0.0243507256526889    7    5    7    5
 0.009208024374829898    7    6    3    1
 0.09859557551753964    7    6    3    2
 -0.04766697035557746    7    6    4    3
 -0.0645144403376592    7    6    6    3
 0.01219122966061575    7    6    7    1
 -0.009945922639773506    7    6    7    2
 0.05791859956664067    7    6    7    4
 0.1153064113587364    7    6    7    6
 0.8689352763571726    7    7    1    1
 -0.009399377937978737    7    7    2    1
 0.6242300687607362    7    7    2    2
 0.6107416373609799    7    7    3    3
 -0.004169126742013965    7    7    4    1
 0.01382974685357195    7    7    4    2
 0.6082119534092185    7    7    4    4
 0.624985002505604    7    7    5    5
 -0.005126080182184659    7    7    6    1
 0.06904641495605665    7    7    6    2
 -0.04154607992356096    7    7    6    4
 0.5663097753341713    7    7    6    6
 0.09320617000874695    7    7    7    3
 0.6195154911768892    7    7    7    7
 -32.70260435203478    1    1  0  0
 0.5581081533521384    2    1  0  0
 -7.670748404032055    2    2  0  0
 -6.363962593720195    3    3  0  0
 0.2351901970255429    4    1  0  0
 -0.4316849007095121    4    2  0  0
 -6.986223760028948    4    4  0  0
 -7.457170098544084    5    5  0  0
 0.304605596920131    6    1  0  0
 -1.381406062067695    6    2  0  0
 1.080199533839109    6    4  0  0
 -5.33601452798355    6    6  0  0
 -1.70992142255729    7    3  0  0
 -5.603486838307613    7    7  0  0
 9.189533762934902  0  0  0  0
