 &FCI NORB=  33,NELEC=14,MS2=0,
  ORBSYM=1,1,1,1,1,1,1,1,1,1,1,1,1,1,1,1,1,1,1,1,1,1,1,1,1,1,1,1,1,1,1,1,1,
  ISYM=1,
 &END
 4.124543098020347    1    1    1    1
 -0.0006966418806942031    2    1    1    1
 1.73534084102994e-07    2    1    2    1
 0.3743111539514478    2    2    1    1
 0.000331918185794474    2    2    2    1
 3.508240553975051    2    2    2    2
 -0.2924057232660857    3    1    1    1
 6.326660077025742e-05    3    1    2    1
 0.002760662694325582    3    1    2    2
 0.03504254320581335    3    1    3    1
 0.004081245400570226    3    2    1    1
 -1.572716354232135e-05    3    2    2    1
 -0.1668121714876118    3    2    2    2
 5.544683625025453e-05    3    2    3    1
 0.01431668911620193    3    2    3    2
 0.7849063204939043    3    3    1    1
 -1.773050587709816e-05    3    3    2    1
 0.5705257162351091    3    3    2    2
 -0.001188641453636785    3    3    3    1
 0.004395041438482888    3    3    3    2
 0.6920568338154424    3    3    3    3
 -0.254493419667871    4    1    1    1
 4.980616749604971e-05    4    1    2    1
 -0.004261738441934172    4    1    2    2
 0.02611296207446891    4    1    3    1
 -0.000104822781385199    4    1    3    2
 -0.01439925444450176    4    1    3    3
 0.03054474610087673    4    1    4    1
 0.0006009973695284744    4    2    1    1
 2.119665159234464e-05    4    2    2    1
 0.2153991167530146    4    2    2    2
 -3.951652931655103e-06    4    2    3    1
 -0.01621662525567523    4    2    3    2
 0.002676857496493433    4    2    3    3
 -1.418753524856585e-05    4    2    4    1
 0.02171989203973201    4    2    4    2
 0.181722698458909    4    3    1    1
 -5.23374357835467e-05    4    3    2    1
 -0.1637607751823361    4    3    2    2
 -0.007305826691224675    4    3    3    1
 0.001087811929040654    4    3    3    2
 -0.01598731246354247    4    3    3    3
 -9.295652809797736e-05    4    3    4    1
 -0.002188018135943055    4    3    4    2
 0.07769993054924697    4    3    4    3
 0.7062234826949899    4    4    1    1
 -3.602622269828979e-05    4    4    2    1
 0.5143738182308274    4    4    2    2
 -0.01003436124404352    4    4    3    1
 -0.001761932355174492    4    4    3    2
 0.4919776260349271    4    4    3    3
 0.0001680142814094494    4    4    4    1
 0.003089579016309208    4    4    4    2
 0.03636796872698924    4    4    4    3
 0.5125994764144494    4    4    4    4
 0.04794969787775485    5    1    1    1
 -8.868281573440811e-06    5    1    2    1
 -0.0004685648291487688    5    1    2    2
 -0.004257833612517971    5    1    3    1
 8.841292567139325e-06    5    1    3    2
 0.004943209079023554    5    1    3    3
 -0.00537568294179723    5    1    4    1
 -2.811936848844099e-05    5    1    4    2
 0.0005334803318245614    5    1    4    3
 0.0004657711757138687    5    1    4    4
 0.01085244283317564    5    1    5    1
 0.0006344605109466685    5    2    1    1
 1.359173927758643e-05    5    2    2    1
 0.1298478869792923    5    2    2    2
 2.708944900331519e-05    5    2    3    1
 -0.008924529228683495    5    2    3    2
 0.004690026434823876    5    2    3    3
 -2.385265042493544e-05    5    2    4    1
 0.01178537735822652    5    2    4    2
 -0.003535500366727322    5    2    4    3
 0.004306467664219421    5    2    4    4
 9.456580911712341e-05    5    2    5    1
 0.01157950407779275    5    2    5    2
 -0.003825099793895975    5    3    1    1
 -4.508783670547076e-06    5    3    2    1
 -0.05181657732994594    5    3    2    2
 0.002149273966849027    5    3    3    1
 0.001635872176318161    5    3    3    2
 0.04287797556402638    5    3    3    3
 -6.374339107309963e-05    5    3    4    1
 -0.00261474171432343    5    3    4    2
 -0.01011249878112163    5    3    4    3
 0.00181456710384063    5    3    4    4
 0.01049931149395789    5    3    5    1
 0.003060967339941459    5    3    5    2
 0.09522892541899002    5    3    5    3
 -0.07822770823899897    5    4    1    1
 2.031873621285225e-05    5    4    2    1
 0.07975300565281072    5    4    2    2
 0.002479707536150349    5    4    3    1
 -0.003172379688836851    5    4    3    2
 -0.0245426647189266    5    4    3    3
 -0.000267238754894417    5    4    4    1
 0.002483084864409782    5    4    4    2
 -0.01788314742723175    5    4    4    3
 -0.02522238553086075    5    4    4    4
 0.006129148974506703    5    4    5    1
 -0.001718514439924871    5    4    5    2
 0.001761320328009566    5    4    5    3
 0.04467087279941515    5    4    5    4
 0.6233728236739248    5    5    1    1
 -1.075134211412956e-05    5    5    2    1
 0.5345672421425531    5    5    2    2
 -0.001587429468763243    5    5    3    1
 -0.0002029215840036682    5    5    3    2
 0.5394171943721289    5    5    3    3
 -0.005436939956582777    5    5    4    1
 0.003477350158383424    5    5    4    2
 -0.0006752557540722848    5    5    4    3
 0.4447129547330753    5    5    4    4
 -0.001373585849516344    5    5    5    1
 -0.00116094040100146    5    5    5    2
 -0.003899864148964897    5    5    5    3
 -0.0116507612082492    5    5    5    4
 0.5058358850456364    5    5    5    5
 0.03677748454519337    6    1    1    1
 -3.482916225664378e-06    6    1    2    1
 0.005976848957915773    6    1    2    2
 -0.0006474957285536354    6    1    3    1
 0.0001258027817798817    6    1    3    2
 0.01088537012259982    6    1    3    3
 -0.0103463376209475    6    1    4    1
 2.940329605152755e-05    6    1    4    2
 -0.004672667170040392    6    1    4    3
 -0.006721084893648623    6    1    4    4
 -0.002685148557199043    6    1    5    1
 -3.94953508711785e-06    6    1    5    2
 -0.003589799433267433    6    1    5    3
 -0.001108629335344899    6    1    5    4
 0.005000097018858367    6    1    5    5
 0.0110472090473274    6    1    6    1
 0.007959733000096409    6    2    1    1
 1.32368162881251e-05    6    2    2    1
 0.1182025653377702    6    2    2    2
 0.0001140652749583395    6    2    3    1
 -0.005069218433384932    6    2    3    2
 0.01348720790437021    6    2    3    3
 -0.0001788548241467734    6    2    4    1
 0.0128376712973999    6    2    4    2
 -0.002665708180226918    6    2    4    3
 0.002927515142951795    6    2    4    4
 -4.821734202325742e-05    6    2    5    1
 0.006818084345998842    6    2    5    2
 -0.002347774715301891    6    2    5    3
 -0.0008906308347192964    6    2    5    4
 0.006594926814428196    6    2    5    5
 0.0002649799947628098    6    2    6    1
 0.01685867054667335    6    2    6    2
 0.06946916795065336    6    3    1    1
 7.055341629812913e-06    6    3    2    1
 0.04809471385795132    6    3    2    2
 0.003195897156209789    6    3    3    1
 0.003158394316548367    6    3    3    2
 0.09061489243695188    6    3    3    3
 -0.006129287585008819    6    3    4    1
 0.0002826970114490988    6    3    4    2
 -0.01759664386585703    6    3    4    3
 0.004971070121223791    6    3    4    4
 -0.00301752623607689    6    3    5    1
 -0.0008251688773450201    6    3    5    2
 -0.02013219690447179    6    3    5    3
 -0.007205112975662869    6    3    5    4
 0.04955608440822651    6    3    5    5
 0.009409839443547736    6    3    6    1
 0.006468683165793249    6    3    6    2
 0.05317090404863247    6    3    6    3
 -0.2285551139009523    6    4    1    1
 5.235088867959046e-05    6    4    2    1
 0.1582249818108662    6    4    2    2
 0.005786738094686779    6    4    3    1
 -0.005664587883160441    6    4    3    2
 -0.05700373494205353    6    4    3    3
 -0.003010559666346483    6    4    4    1
 0.001260656040200503    6    4    4    2
 -0.07480827990213586    6    4    4    3
 -0.07067329728863862    6    4    4    4
 -0.002730859515924053    6    4    5    1
 0.001783986612398453    6    4    5    2
 -0.01204887281316904    6    4    5    3
 0.03104698727944164    6    4    5    4
 -0.0252567738429441    6    4    5    5
 0.007842390965510759    6    4    6    1
 -0.008091547112338478    6    4    6    2
 -0.0004408849934973983    6    4    6    3
 0.1336076430338484    6    4    6    4
 -0.09392978622330539    6    5    1    1
 1.508516448487505e-05    6    5    2    1
 0.05254154938013876    6    5    2    2
 0.0001564572884475842    6    5    3    1
 -0.003828374988743367    6    5    3    2
 -0.05250911568376686    6    5    3    3
 0.001875479334772432    6    5    4    1
 0.0009123706793942301    6    5    4    2
 -0.01778203394350469    6    5    4    3
 -0.01652446513661423    6    5    4    4
 -0.0004470874475302074    6    5    5    1
 -0.0005689667919158721    6    5    5    2
 -0.00225767802033378    6    5    5    3
 0.01425977226996158    6    5    5    4
 -0.02787818878888049    6    5    5    5
 -0.001561716714631487    6    5    6    1
 -0.005437310527724623    6    5    6    2
 -0.01679340466162232    6    5    6    3
 0.04139725628449881    6    5    6    4
 0.03804894538888918    6    5    6    5
 0.5546429925305884    6    6    1    1
 4.728213013939229e-06    6    6    2    1
 0.6265430263998414    6    6    2    2
 -0.002682803341752349    6    6    3    1
 -0.004735987408196312    6    6    3    2
 0.4711048803224857    6    6    3    3
 -0.003409123934946719    6    6    4    1
 0.003109974689561104    6    6    4    2
 -0.01751561547211756    6    6    4    3
 0.4524814775705258    6    6    4    4
 0.001110215378168265    6    6    5    1
 0.002709311413675201    6    6    5    2
 -0.01081488837402993    6    6    5    3
 0.01652519745023261    6    6    5    4
 0.4304002553931573    6    6    5    5
 0.001084280092992433    6    6    6    1
 -0.002785111699183768    6    6    6    2
 0.02296140846838709    6    6    6    3
 0.02117334259097577    6    6    6    4
 0.007486127255130061    6    6    6    5
 0.4879304434352624    6    6    6    6
 0.01500517603093586    7    1    7    1
 0.0001287813114493317    7    2    7    1
 0.005145558837909868    7    2    7    2
 0.01361357212386845    7    3    7    1
 0.004537792464710278    7    3    7    2
 0.07884537966104169    7    3    7    3
 0.009903132803677573    7    4    7    1
 -0.003626890909232985    7    4    7    2
 0.01857303259960794    7    4    7    3
 0.0425581532097653    7    4    7    4
 -0.002540227455438176    7    5    7    1
 -0.002619713194576174    7    5    7    2
 -0.01514434609002114    7    5    7    3
 -0.001631835793538891    7    5    7    4
 0.02417947821696014    7    5    7    5
 -0.001487615740696175    7    6    7    1
 -0.001759373021754497    7    6    7    2
 -0.004349248463335006    7    6    7    3
 -0.004660361446471931    7    6    7    4
 -2.78045469810968e-05    7    6    7    5
 0.01761471263569457    7    6    7    6
 0.7060538885883242    7    7    1    1
 -2.937430962216373e-05    7    7    2    1
 0.4775037035505521    7    7    2    2
 -0.003265461014288862    7    7    3    1
 0.00160471917305224    7    7    3    2
 0.5435461584537034    7    7    3    3
 -0.005804455305529563    7    7    4    1
 0.001660720232430551    7    7    4    2
 0.0249519400495006    7    7    4    3
 0.4638539256210225    7    7    4    4
 0.0008002640830502587    7    7    5    1
 0.001427625076081986    7    7    5    2
 -0.003627955944818261    7    7    5    3
 -0.01937260045219084    7    7    5    4
 0.4607853444489228    7    7    5    5
 0.003342281078356263    7    7    6    1
 0.006332072764600846    7    7    6    2
 0.04477304736936766    7    7    6    3
 -0.0566322358912907    7    7    6    4
 -0.03359492262319391    7    7    6    5
 0.4225288942291379    7    7    6    6
 0.5156152182040484    7    7    7    7
 -0.003603047000056224    8    1    1    1
 -1.232751800076544e-06    8    1    2    1
 -0.0006322093449621526    8    1    2    2
 -0.001529308046998621    8    1    3    1
 -3.062723313565845e-05    8    1    3    2
 -0.005638046311813391    8    1    3    3
 0.002185300091801888    8    1    4    1
 2.247608925424906e-05    8    1    4    2
 0.001062979001304741    8    1    4    3
 0.001926717152687286    8    1    4    4
 -0.009519369777039538    8    1    5    1
 -8.24297484382576e-05    8    1    5    2
 -0.00968725256068209    8    1    5    3
 -0.006278035473879916    8    1    5    4
 0.0009798892286710631    8    1    5    5
 0.001383431036422891    8    1    6    1
 -4.204397508152783e-06    8    1    6    2
 0.001286841944527733    8    1    6    3
 0.0008524699603834017    8    1    6    4
 0.000774750448260559    8    1    6    5
 -0.0008716958756827951    8    1    6    6
 -0.000721742726551336    8    1    7    7
 0.009341493791439216    8    1    8    1
 0.0006123549976136678    8    2    1    1
 1.760871361852697e-06    8    2    2    1
 0.005827773382233552    8    2    2    2
 3.175033221188739e-05    8    2    3    1
 0.000886802976296046    8    2    3    2
 0.004211476164211044    8    2    3    3
 -2.858067847749615e-05    8    2    4    1
 -0.001291914312477341    8    2    4    2
 -0.002980934748644738    8    2    4    3
 0.003456458109114369    8    2    4    4
 0.0001211443228095941    8    2    5    1
 0.006604103769890988    8    2    5    2
 0.005715142590886989    8    2    5    3
 -0.004360984473954868    8    2    5    4
 -0.004364509377126018    8    2    5    5
 -1.243344946134399e-05    8    2    6    1
 -0.0007589361180951031    8    2    6    2
 -0.001188942908106103    8    2    6    3
 0.001412448321170771    8    2    6    4
 -0.001876049986089533    8    2    6    5
 0.00137861993567086    8    2    6    6
 0.0007787023530396037    8    2    7    7
 -0.0001041505895172866    8    2    8    1
 0.01041265460520968    8    2    8    2
 -0.04181047848516982    8    3    1    1
 7.927686063434828e-06    8    3    2    1
 0.02569120732541354    8    3    2    2
 -0.0009408246454317543    8    3    3    1
 0.0002627031613930522    8    3    3    2
 -0.01938683260839974    8    3    3    3
 0.001641009772421048    8    3    4    1
 -0.0007034700610271891    8    3    4    2
 -0.01555102184953179    8    3    4    3
 0.003880473526366139    8    3    4    4
 -0.007174317835369132    8    3    5    1
 0.003227785870467107    8    3    5    2
 -0.01984385146734927    8    3    5    3
 -0.02181754339759917    8    3    5    4
 -0.01322997595695581    8    3    5    5
 0.001189621783263153    8    3    6    1
 -0.0007976557510260778    8    3    6    2
 0.0003886571281343856    8    3    6    3
 0.02018974562242031    8    3    6    4
 0.004780536374912714    8    3    6    5
 0.0009112757460702959    8    3    6    6
 -0.01041509153696646    8    3    7    7
 0.006857243123931659    8    3    8    1
 0.004982687088054825    8    3    8    2
 0.03482724536510989    8    3    8    3
 0.0465667082790706    8    4    1    1
 -1.378285611911637e-05    8    4    2    1
 -0.03983392747053173    8    4    2    2
 -0.002442739172672754    8    4    3    1
 -0.0007004709418477487    8    4    3    2
 -0.02262339744303313    8    4    3    3
 0.001227325604367776    8    4    4    1
 0.001270073650589934    8    4    4    2
 0.02967731673907872    8    4    4    3
 0.004488240742142675    8    4    4    4
 -0.007495057792733716    8    4    5    1
 -0.005581760158592683    8    4    5    2
 -0.0502366181287148    8    4    5    3
 -0.01312028795877996    8    4    5    4
 0.01655141262628571    8    4    5    5
 0.0008603373146409374    8    4    6    1
 0.001101224093030471    8    4    6    2
 0.01104160943553008    8    4    6    3
 -0.02217703185272749    8    4    6    4
 0.008577890952749342    8    4    6    5
 -0.01299533571069113    8    4    6    6
 0.005152954856133982    8    4    7    7
 0.007504505169509983    8    4    8    1
 -0.008646837762498289    8    4    8    2
 0.0005255391876253757    8    4    8    3
 0.06369212160542596    8    4    8    4
 -0.2264845630045932    8    5    1    1
 5.002228744148869e-05    8    5    2    1
 0.1506011149251844    8    5    2    2
 0.003696220246764547    8    5    3    1
 -0.0029829095102241    8    5    3    2
 -0.05873966180153103    8    5    3    3
 0.001130735793351132    8    5    4    1
 0.002289208509524782    8    5    4    2
 -0.06582286007387932    8    5    4    3
 -0.0545765587880713    8    5    4    4
 -0.0002392342377140716    8    5    5    1
 -0.001756082913772415    8    5    5    2
 -0.01992462311524034    8    5    5    3
 0.03912316942380495    8    5    5    4
 -0.02562522265701176    8    5    5    5
 0.001191338695662459    8    5    6    1
 -0.0005725925720474182    8    5    6    2
 -0.0008375080827420019    8    5    6    3
 0.08092375474487513    8    5    6    4
 0.03562883426669916    8    5    6    5
 0.005858659398291387    8    5    6    6
 -0.05326266866342907    8    5    7    7
 -0.0005172597297218912    8    5    8    1
 -0.004397213680641152    8    5    8    2
 0.009000988329087866    8    5    8    3
 -0.007444061412530739    8    5    8    4
 0.1021539659210464    8    5    8    5
 0.03039104421085978    8    6    1    1
 -7.497669802722607e-06    8    6    2    1
 -0.02169260018400453    8    6    2    2
 -0.000256087539035206    8    6    3    1
 -0.0004852988296873877    8    6    3    2
 0.0009003333623481026    8    6    3    3
 -0.0004475303963395038    8    6    4    1
 0.0008044525397266641    8    6    4    2
 0.01668117336543479    8    6    4    3
 -0.004509902255213477    8    6    4    4
 0.001501849623745135    8    6    5    1
 -0.003524631445364343    8    6    5    2
 -0.004197165106416187    8    6    5    3
 0.01514632669383546    8    6    5    4
 0.01474827664807496    8    6    5    5
 -0.0003941387516464416    8    6    6    1
 0.0005600035959258684    8    6    6    2
 0.001918383974972823    8    6    6    3
 -0.01679431843854889    8    6    6    4
 0.0002036626054302698    8    6    6    5
 -0.004101024418110413    8    6    6    6
 0.005405189238427167    8    6    7    7
 -0.001524117205370137    8    6    8    1
 -0.005834242117556472    8    6    8    2
 -0.01871138399849206    8    6    8    3
 0.01770204079525599    8    6    8    4
 -0.001490947845165283    8    6    8    5
 0.03359002311150706    8    6    8    6
 0.0001406410924364857    8    7    7    1
 -3.315196294570092e-05    8    7    7    2
 -0.0005856898815471242    8    7    7    3
 0.001013910449879248    8    7    7    4
 -0.004852532284446835    8    7    7    5
 0.0004800105448203649    8    7    7    6
 0.01208530453616194    8    7    8    7
 0.5222296713666658    8    8    1    1
 1.464391622720022e-06    8    8    2    1
 0.5613018250159834    8    8    2    2
 -0.002186458908638004    8    8    3    1
 -0.001976438095869348    8    8    3    2
 0.4556387504290069    8    8    3    3
 -0.003268611856718307    8    8    4    1
 0.002666744949432057    8    8    4    2
 -0.01608098478394338    8    8    4    3
 0.4223422588041921    8    8    4    4
 0.0004130840528278917    8    8    5    1
 0.001632008523800209    8    8    5    2
 -0.002086769296758532    8    8    5    3
 0.001773164203732189    8    8    5    4
 0.4372998300433099    8    8    5    5
 0.001635944799490933    8    8    6    1
 0.001915642028700852    8    8    6    2
 0.01877896446887901    8    8    6    3
 0.01069944721174717    8    8    6    4
 -0.002656237442272661    8    8    6    5
 0.4224029066547043    8    8    6    6
 0.4063674062657466    8    8    7    7
 -0.0001974657653901915    8    8    8    1
 2.366445598269147e-05    8    8    8    2
 0.0005077147044154136    8    8    8    3
 -0.004500123714910104    8    8    8    4
 0.006731888623981614    8    8    8    5
 -0.001062999431176148    8    8    8    6
 0.4293224193923543    8    8    8    8
 -0.01152551565742103    9    1    7    1
 -8.773400592960086e-05    9    1    7    2
 -0.0102071873918661    9    1    7    3
 -0.007693393118850881    9    1    7    4
 0.001902520035825336    9    1    7    5
 0.001297666235480237    9    1    7    6
 -0.0001303022113300707    9    1    8    7
 0.008858729566461561    9    1    9    1
 0.0001503092523112447    9    2    7    1
 0.0074347966685447    9    2    7    2
 0.006061282128743171    9    2    7    3
 -0.005217755345733251    9    2    7    4
 -0.003701842972082166    9    2    7    5
 -0.002780960738010724    9    2    7    6
 -7.183982231430445e-05    9    2    8    7
 -0.0001011564051758686    9    2    9    1
 0.01076682893955012    9    2    9    2
 -0.007915457575552082    9    3    7    1
 0.003420385067807194    9    3    7    2
 -0.01572988401948347    9    3    7    3
 -0.03013715512823129    9    3    7    4
 -0.002252084876954682    9    3    7    5
 -0.0007313545355219418    9    3    7    6
 0.001546508600145198    9    3    8    7
 0.006033256458573588    9    3    9    1
 0.004861553618096289    9    3    9    2
 0.02570908706703329    9    3    9    3
 -0.009305720069339506    9    4    7    1
 -0.006043649122411024    9    4    7    2
 -0.05103938872644621    9    4    7    3
 -0.0112673777942648    9    4    7    4
 0.0176234795096842    9    4    7    5
 0.02060094185184874    9    4    7    6
 -0.002729179573378364    9    4    8    7
 0.007145082033229389    9    4    9    1
 -0.00861089811319117    9    4    9    2
 0.003126369334359588    9    4    9    3
 0.05629744672066327    9    4    9    4
 0.001085775708525964    9    5    7    1
 -0.003475214132281058    9    5    7    2
 -0.007730514499821485    9    5    7    3
 0.01308800607141488    9    5    7    4
 0.003172164201754589    9    5    7    5
 0.007035535290099478    9    5    7    6
 0.0101019085587579    9    5    8    7
 -0.0008551736464095573    9    5    9    1
 -0.00503570713060655    9    5    9    2
 -0.009846321437094378    9    5    9    3
 0.01293270451930519    9    5    9    4
 0.01913218672297186    9    5    9    5
 0.001789369369919519    9    6    7    1
 -0.003993351280690014    9    6    7    2
 -0.005258832581623209    9    6    7    3
 0.02354322500070277    9    6    7    4
 0.008822543584925888    9    6    7    5
 0.006093497644373481    9    6    7    6
 -0.001492551725448721    9    6    8    7
 -0.00149974786591901    9    6    9    1
 -0.006004797572058298    9    6    9    2
 -0.01513731067502863    9    6    9    3
 0.01493202776689065    9    6    9    4
 0.0136224309505355    9    6    9    5
 0.03197228040989485    9    6    9    6
 -0.2633055479345029    9    7    1    1
 5.814489765190267e-05    9    7    2    1
 0.1692168520631968    9    7    2    2
 0.004485390834300244    9    7    3    1
 -0.002834906422967303    9    7    3    2
 -0.05993007919982613    9    7    3    3
 0.001341203765602428    9    7    4    1
 0.001716353267938777    9    7    4    2
 -0.07921328163269203    9    7    4    3
 -0.06005466581358552    9    7    4    4
 -0.0007996759334949125    9    7    5    1
 0.001009145239985798    9    7    5    2
 -0.01038381952956391    9    7    5    3
 0.03622104037591456    9    7    5    4
 -0.02953371913977281    9    7    5    5
 0.001715119297953825    9    7    6    1
 -0.001363494476267208    9    7    6    2
 -0.003052944722680491    9    7    6    3
 0.0970515819413014    9    7    6    4
 0.03481284603997783    9    7    6    5
 0.008166456636741558    9    7    6    6
 -0.07120289502444843    9    7    7    7
 -6.071785349815381e-05    9    7    8    1
 2.632092860574231e-05    9    7    8    2
 0.01518655439774598    9    7    8    3
 -0.02004959480299018    9    7    8    4
 0.08601434573662828    9    7    8    5
 -0.01213130782230616    9    7    8    6
 0.002440457729141224    9    7    8    8
 0.1211849421661537    9    7    9    7
 -0.0002369359120912992    9    8    7    1
 -0.0001917824563137051    9    8    7    2
 0.001900915568220403    9    8    7    3
 -0.003296768311781532    9    8    7    4
 0.01336637706536732    9    8    7    5
 -0.001804007070884479    9    8    7    6
 0.001689101389026135    9    8    8    7
 0.0001953730255190852    9    8    9    1
 -0.0003122310905843387    9    8    9    2
 0.0005114527141091648    9    8    9    3
 0.0009925109174446988    9    8    9    4
 0.002760382850266518    9    8    9    5
 0.0001686847573653565    9    8    9    6
 0.0169216165630572    9    8    9    8
 0.5059580899301181    9    9    1    1
 4.929449435222784e-06    9    9    2    1
 0.5688883498440507    9    9    2    2
 -0.002071020109924868    9    9    3    1
 -0.002241478189781015    9    9    3    2
 0.4423529606452384    9    9    3    3
 -0.003157749179109824    9    9    4    1
 0.002750375183684178    9    9    4    2
 -0.01709762650555816    9    9    4    3
 0.4151828658753964    9    9    4    4
 0.0003785960600290836    9    9    5    1
 0.001716276329153362    9    9    5    2
 -0.01321105385246345    9    9    5    3
 0.01084890412184363    9    9    5    4
 0.4076719993755246    9    9    5    5
 0.001619138722831462    9    9    6    1
 0.001640265123109798    9    9    6    2
 0.01934672162280981    9    9    6    3
 0.01548353106420648    9    9    6    4
 0.004661556902456055    9    9    6    5
 0.4212839541158382    9    9    6    6
 0.4295510299062407    9    9    7    7
 -0.0002748164749143827    9    9    8    1
 0.0002681827978574798    9    9    8    2
 0.000925065536504548    9    9    8    3
 -0.004575009581980926    9    9    8    4
 0.008396876162900501    9    9    8    5
 -0.001691003907634125    9    9    8    6
 0.3942675472892469    9    9    8    8
 0.01335938602870074    9    9    9    7
 0.4281536076541245    9    9    9    9
 0.0994106794006908   10    1    1    1
 -2.143205283641802e-05   10    1    2    1
 -0.0001168700418951533   10    1    2    2
 -0.01205690773109924   10    1    3    1
 -6.962972833464425e-06   10    1    3    2
 0.0005384905232671268   10    1    3    3
 -0.00967746546580524   10    1    4    1
 1.113989250136909e-05   10    1    4    2
 0.001821380577633892   10    1    4    3
 0.00242637224372822   10    1    4    4
 -0.001277791243752318   10    1    5    1
 -2.97953070866664e-05   10    1    5    2
 -0.003511056355541936   10    1    5    3
 -0.002400208081766839   10    1    5    4
 0.001432280619546704   10    1    5    5
 0.002210740186948782   10    1    6    1
 1.011783919191818e-06   10    1    6    2
 0.0006550888894546077   10    1    6    3
 -0.000282420490076608   10    1    6    4
 -0.0001020920064037716   10    1    6    5
 0.000644658332051841   10    1    6    6
 0.001138682968721081   10    1    7    7
 0.002954647689328591   10    1    8    1
 -3.804883799522317e-05   10    1    8    2
 0.002122429772791035   10    1    8    3
 0.002627257980349675   10    1    8    4
 -0.001027340493511589   10    1    8    5
 -0.0003153127118313638   10    1    8    6
 0.0008272592241516747   10    1    8    8
 -0.00100173557100059   10    1    9    7
 0.000712376200485165   10    1    9    9
 0.005038663523536705   10    1   10    1
 0.0009169749793047153   10    2    1    1
 6.08993724768091e-06   10    2    2    1
 0.06172139944004195   10    2    2    2
 8.564665669988227e-06   10    2    3    1
 -0.004375492261382054   10    2    3    2
 0.001461128966956036   10    2    3    3
 -1.132361210925647e-05   10    2    4    1
 0.006873605727319769   10    2    4    2
 -0.00023307506511681   10    2    4    3
 0.0002566952976964611   10    2    4    4
 -4.132269832820647e-05   10    2    5    1
 0.002116692628349335   10    2    5    2
 -0.002121071528118259   10    2    5    3
 0.001282723107330599   10    2    5    4
 0.002600760384940393   10    2    5    5
 3.71091014333302e-05   10    2    6    1
 0.005584752341988206   10    2    6    2
 0.001154407262426883   10    2    6    3
 -0.001300666056382637   10    2    6    4
 -0.0002998049203671305   10    2    6    5
 -0.0004035959541288894   10    2    6    6
 0.001012268273456135   10    2    7    7
 2.982064636254682e-05   10    2    8    1
 -0.002656234671597493   10    2    8    2
 -0.001308070290632697   10    2    8    3
 0.002241902120703446   10    2    8    4
 0.001421800524721032   10    2    8    5
 0.001431973543332663   10    2    8    6
 0.0008617902727375938   10    2    8    8
 0.0001816064090442658   10    2    9    7
 0.0006729027661385845   10    2    9    9
 1.016293307097549e-05   10    2   10    1
 0.002921946717273972   10    2   10    2
 -0.1094351581942713   10    3    1    1
 8.701748447094731e-06   10    3    2    1
 -0.0423125549063589   10    3    2    2
 0.001367394439361598   10    3    3    1
 -0.0001374908487305908   10    3    3    2
 -0.05791657207184191   10    3    3    3
 0.003304659689084473   10    3    4    1
 -0.0004647206866480493   10    3    4    2
 -0.004708325203840115   10    3    4    3
 -0.03761528434402478   10    3    4    4
 -0.002944721319529886   10    3    5    1
 -0.001450504915965025   10    3    5    2
 -0.008034144088013721   10    3    5    3
 -0.0005638330899095064   10    3    5    4
 -0.02754774997572505   10    3    5    5
 -0.0009604194850855867   10    3    6    1
 -0.001134614349752158   10    3    6    2
 -0.009958692988032444   10    3    6    3
 0.01280454916286176   10    3    6    4
 0.003712360390716424   10    3    6    5
 -0.03461278724457512   10    3    6    6
 -0.04026491723792506   10    3    7    7
 0.002680006990522198   10    3    8    1
 -0.001568100961512336   10    3    8    2
 0.006821436817522683   10    3    8    3
 0.005368792035564477   10    3    8    4
 0.01371704145637119   10    3    8    5
 -0.001113533677309206   10    3    8    6
 -0.02513839535435607   10    3    8    8
 0.01441830787712301   10    3    9    7
 -0.02729694059726767   10    3    9    9
 0.0001090696981457591   10    3   10    1
 0.0001300304558147424   10    3   10    2
 0.01588891902015523   10    3   10    3
 -0.06881698636732264   10    4    1    1
 1.799805773775949e-05   10    4    2    1
 0.0572646566498771   10    4    2    2
 0.002510133983901396   10    4    3    1
 -0.001475817307891256   10    4    3    2
 -0.01054707521739071   10    4    3    3
 0.0002527201016066572   10    4    4    1
 0.0007613949247134379   10    4    4    2