 &FCI NORB=  10,NELEC= 2,MS2=0,
  ORBSYM=1,1,1,1,1,1,1,1,1,1,
  ISYM=1,
 &END
 0.4744095196116941    1    1    1    1
 0.1264423988404962    2    1    2    1
 0.4085552548378222    2    2    1    1
 0.3857978910693135    2    2    2    2
 0.1055713310245378    3    1    1    1
 0.07543382237027978    3    1    2    2
 0.07145621882800335    3    1    3    1
 0.03400302654188762    3    2    2    1
 0.04258704266487826    3    2    3    2
 0.4133250259296399    3    3    1    1
 0.3649278710736423    3    3    2    2
 0.08878447635216193    3    3    3    1
 0.3820000329078428    3    3    3    3
 0.0741243733869696    4    1    2    1
 0.05261595266385165    4    1    3    2
 0.0757243301133888    4    1    4    1
 0.1187788414225663    4    2    1    1
 0.08736715089876304    4    2    2    2
 0.0705333884664209    4    2    3    1
 0.09961462540327225    4    2    3    3
 0.07897258551625697    4    2    4    2
 0.1224018707405903    4    3    2    1
 0.04484405852509375    4    3    3    2
 0.08435971540237006    4    3    4    1
 0.1366019729216554    4    3    4    3
 0.4211659960552541    4    4    1    1
 0.3843359333551417    4    4    2    2
 0.1037189043483154    4    4    3    1
 0.3893516684834361    4    4    3    3
 0.1116783522266245    4    4    4    2
 0.4136116448770896    4    4    4    4
 -0.03639466191235311    5    1    1    1
 0.01312877365768182    5    1    2    2
 -0.01474835273557989    5    1    3    1
 -0.02124269402150046    5    1    3    3
 -0.005685030979731516    5    1    4    2
 -0.0002472608485017256    5    1    4    4
 0.07899306449923396    5    1    5    1
 0.0749573616068408    5    2    2    1
 0.0141703237448985    5    2    3    2
 0.03535016938497928    5    2    4    1
 0.06489549015080398    5    2    4    3
 0.07391360655770322    5    2    5    2
 -0.01704463100084652    5    3    1    1
 0.002457683578103447    5    3    2    2
 -0.006880474792686131    5    3    3    1
 -0.007492430906864798    5    3    3    3
 0.002172925634268862    5    3    4    2
 0.0010954673846984    5    3    4    4
 0.03790704115132195    5    3    5    1
 0.02492338823330204    5    3    5    3
 0.03427910280859468    5    4    2    1
 0.0142317602675997    5    4    3    2
 0.02321973549968806    5    4    4    1
 0.03340863840837562    5    4    4    3
 0.03980240778982893    5    4    5    2
 0.03021096190240665    5    4    5    4
 0.5052007548801762    5    5    1    1
 0.4427503671200742    5    5    2    2
 0.1235268140015692    5    5    3    1
 0.4286710847541361    5    5    3    3
 0.1338021648155309    5    5    4    2
 0.4469331379665477    5    5    4    4
 -0.02360468198784049    5    5    5    1
 -0.01824429330366851    5    5    5    3
 0.5933653813271097    5    5    5    5
 0.07594072069671089    6    1    6    1
 0.0481761335949808    6    2    6    2
 0.02483118947717182    6    3    6    1
 0.01593128141325197    6    3    6    3
 0.03022812568931821    6    4    6    2
 0.02553906200058472    6    4    6    4
 0.001209457518207191    6    5    6    1
 0.0004647905062374593    6    5    6    3
 0.02878326364417391    6    5    6    5
 0.4939257511187984    6    6    1    1
 0.4316133407574211    6    6    2    2
 0.1110203062140239    6    6    3    1
 0.4214314411939952    6    6    3    3
 0.1291568444324996    6    6    4    2
 0.4350738306859079    6    6    4    4
 -0.02375018619513892    6    6    5    1
 -0.01120072676530473    6    6    5    3
 0.5217841264253916    6    6    5    5
 0.5556574541344156    6    6    6    6
 0.07594072069671094    7    1    7    1
 0.04817613359498083    7    2    7    2
 0.02483118947717183    7    3    7    1
 0.015931281413252    7    3    7    3
 0.03022812568931823    7    4    7    2
 0.02553906200058476    7    4    7    4
 0.001209457518207192    7    5    7    1
 0.0004647905062374653    7    5    7    3
 0.02878326364417393    7    5    7    5
 0.02431423080080957    7    6    7    6
 0.4939257511187988    7    7    1    1
 0.4316133407574216    7    7    2    2
 0.111020306214024    7    7    3    1
 0.4214314411939953    7    7    3    3
 0.1291568444324996    7    7    4    2
 0.4350738306859083    7    7    4    4
 -0.02375018619513893    7    7    5    1
 -0.01120072676530471    7    7    5    3
 0.521784126425392    7    7    5    5
 0.5070289925327968    7    7    6    6
 0.5556574541344163    7    7    7    7
 0.03946318662566067    8    1    6    2
 0.02608430926042226    8    1    6    4
 -0.03207710220449855    8    1    7    2
 -0.02120226787606271    8    1    7    4
 0.05503392433717509    8    1    8    1
 0.05092903986329744    8    2    6    1
 0.01657286448414578    8    2    6    3
 0.009098357323976479    8    2    6    5
 -0.0413969614863717    8    2    7    1
 -0.01347102232067526    8    2    7    3
 -0.007395473166996317    8    2    7    5
 0.06113666876070936    8    2    8    2
 0.01529720430494233    8    3    6    2
 0.01499041673213846    8    3    6    4
 -0.01243411969203882    8    3    7    2
 -0.01218475168176515    8    3    7    4
 0.02246617587151576    8    3    8    1
 0.01562739060360324    8    3    8    3
 0.03208700933753706    8    4    6    1
 0.01592351049056391    8    4    6    3
 0.0031056011442149    8    4    6    5
 -0.02608147911926625    8    4    7    1
 -0.01294320396133677    8    4    7    3
 -0.002524344682408708    8    4    7    5
 0.03677682705517799    8    4    8    2
 0.0295911261909953    8    4    8    4
 0.01408853426568485    8    5    6    2
 0.00641032906605992    8    5    6    4
 -0.01145166906663577    8    5    7    2
 -0.00521054679559926    8    5    7    4
 0.01480534189427702    8    5    8    1
 0.004292502285981719    8    5    8    3
 0.02330561384616062    8    5    8    5
 0.1202058690256727    8    6    2    1
 0.03783300725737664    8    6    3    2
 0.07592092988431998    8    6    4    1
 0.1105025576319454    8    6    4    3
 0.06515279788796285    8    6    5    2
 0.03006617705255485    8    6    5    4
 0.1481723886560863    8    6    8    6
 -0.09770766823502858    8    7    2    1
 -0.03075203358537922    8    7    3    2
 -0.06171127158231941    8    7    4    1
 -0.08982046656905186    8    7    4    3
 -0.05295854530415114    8    7    5    2
 -0.02443887371189213    8    7    5    4
 -0.1015640705103133    8    7    8    6
 0.1057770825324789    8    7    8    7
 0.4895049483348581    8    8    1    1
 0.4341666568551774    8    8    2    2
 0.1102053849513089    8    8    3    1
 0.4196575459442843    8    8    3    3
 0.1294704036079005    8    8    4    2
 0.4363915734734218    8    8    4    4
 -0.01275963652596481    8    8    5    1
 -0.006389801107046646    8    8    5    3
 0.5164967352340931    8    8    5    5
 0.5351921463041885    8    8    6    6
 -0.02435821031682755    8    8    7    6
 0.5250244385920382    8    8    7    7
 0.5568338596762997    8    8    8    8
 -0.03207710220449856    9    1    6    2
 -0.02120226787606272    9    1    6    4
 -0.03946318662566069    9    1    7    2
 -0.02608430926042229    9    1    7    4
 0.05503392433717513    9    1    9    1
 -0.0413969614863717    9    2    6    1
 -0.01347102232067528    9    2    6    3
 -0.00739547316699632    9    2    6    5
 -0.05092903986329748    9    2    7    1
 -0.0165728644841458    9    2    7    3
 -0.009098357323976484    9    2    7    5
 0.0611366687607094    9    2    9    2
 -0.01243411969203882    9    3    6    2
 -0.01218475168176516    9    3    6    4
 -0.01529720430494234    9    3    7    2
 -0.01499041673213848    9    3    7    4
 0.02246617587151578    9    3    9    1
 0.01562739060360326    9    3    9    3
 -0.02608147911926625    9    4    6    1
 -0.0129432039613368    9    4    6    3
 -0.002524344682408715    9    4    6    5
 -0.03208700933753708    9    4    7    1
 -0.01592351049056394    9    4    7    3
 -0.003105601144214904    9    4    7    5
 0.03677682705517802    9    4    9    2
 0.02959112619099536    9    4    9    4
 -0.01145166906663577    9    5    6    2
 -0.005210546795599269    9    5    6    4
 -0.01408853426568485    9    5    7    2
 -0.006410329066059929    9    5    7    4
 0.01480534189427703    9    5    9    1
 0.004292502285981723    9    5    9    3
 0.02330561384616063    9    5    9    5
 -0.09770766823502859    9    6    2    1
 -0.03075203358537927    9    6    3    2
 -0.06171127158231941    9    6    4    1
 -0.08982046656905168    9    6    4    3
 -0.05295854530415117    9    6    5    2
 -0.02443887371189207    9    6    5    4
 -0.1015640705103133    9    6    8    6
 0.05933280081109293    9    6    8    7
 0.1057770825324789    9    6    9    6
 -0.1202058690256728    9    7    2    1
 -0.03783300725737664    9    7    3    2
 -0.07592092988432003    9    7    4    1
 -0.1105025576319456    9    7    4    3
 -0.0651527978879629    9    7    5    2
 -0.03006617705255487    9    7    5    4
 -0.1017281069347005    9    7    8    6
 0.1015640705103134    9    7    8    7
 0.1015640705103134    9    7    9    6
 0.1481723886560865    9    7    9    7
 -0.02435821031682761    9    8    6    6
 -0.005083853856075312    9    8    7    6
 0.02435821031682764    9    8    7    7
 0.0258482859924966    9    8    9    8
 0.4895049483348586    9    9    1    1
 0.4341666568551778    9    9    2    2
 0.1102053849513089    9    9    3    1
 0.4196575459442845    9    9    3    3
 0.1294704036079005    9    9    4    2
 0.4363915734734221    9    9    4    4
 -0.01275963652596482    9    9    5    1
 -0.006389801107046698    9    9    5    3
 0.5164967352340935    9    9    5    5
 0.5250244385920383    9    9    6    6
 0.02435821031682772    9    9    7    6
 0.5351921463041893    9    9    7    7
 0.5051372876913071    9    9    8    8
 0.5568338596763006    9    9    9    9
 0.004118098450665353   10    1    2    1
 0.0126608927401661   10    1    3    2
 0.01709773425723731   10    1    4    1
 0.01388177585159619   10    1    4    3
 -0.03430313904755658   10    1    5    2
 -0.0240529988457479   10    1    5    4
 0.01148903885294469   10    1    8    6
 -0.009338705386698908   10    1    8    7
 -0.009338705386698917   10    1    9    6
 -0.0114890388529447   10    1    9    7
 0.04762286550481755   10    1   10    1
 0.01457189715019092   10    2    1    1
 -0.01893638081164431   10    2    2    2
 0.009907682843212985   10    2    3    1
 0.01275384609986426   10    2    3    3
 0.003579967323440567   10    2    4    2
 -0.001760593846237239   10    2    4    4
 -0.0554228895615725   10    2    5    1
 -0.02441877863840696   10    2    5    3
 -0.01608811812363697   10    2    5    5
 0.007781239451642948   10    2    6    6
 0.007781239451642939   10    2    7    7
 0.001750766643721744   10    2    8    8
 0.001750766643721766   10    2    9    9
 0.04950468841801702   10    2   10    2
 0.01294985394438688   10    3    2    1
 0.0162884467344883   10    3    3    2
 0.02174779741729772   10    3    4    1
 0.01993278503217917   10    3    4    3
 -0.01302338780270053   10    3    5    2
 -0.01401916470230426   10    3    5    4
 0.01583099667872125   10    3    8    6
 -0.01286800539650838   10    3    8    7
 -0.01286800539650837   10    3    9    6
 -0.01583099667872126   10    3    9    7
 0.02962397870673628   10    3   10    1
 0.02566866975525346   10    3   10    3
 0.05242069884436126   10    4    1    1
 0.01902888938948052   10    4    2    2
 0.02883985267889742   10    4    3    1
 0.04134102296232799   10    4    3    3
 0.02266935052582002   10    4    4    2
 0.03372797267627672   10    4    4    4
 -0.04656943562971358   10    4    5    1
 -0.02590544074724682   10    4    5    3
 0.04121888935249891   10    4    5    5
 0.04926628560088075   10    4    6    6
 0.04926628560088081   10    4    7    7
 0.0443549352108398   10    4    8    8
 0.04435493521083978   10    4    9    9
 0.03726700718250738   10    4   10    2
 0.04123576377942861   10    4   10    4
 -0.1391023012477154   10    5    2    1
 -0.04356961193643268   10    5    3    2
 -0.0868509694166424   10    5    4    1
 -0.1293849669194657   10    5    4    3
 -0.09453444499783994   10    5    5    2
 -0.04161089464308225   10    5    5    4
 -0.1285137641351363   10    5    8    6
 0.1044606251885158   10    5    8    7
 0.1044606251885158   10    5    9    6
 0.1285137641351364   10    5    9    7
 0.004209399986057154   10    5   10    1
 -0.01585331282217469   10    5   10    3
 0.1890412933821796   10    5   10    5
 0.003609597628559041   10    6    6    2
 0.007119111900608987   10    6    6    4
 0.007150508516416828   10    6    8    1
 0.004979935767052272   10    6    8    3
 -0.0144337459173851   10    6    8    5
 -0.005812191363839211   10    6    9    1
 -0.004047871503303856   10    6    9    3
 0.01173226955485313   10    6    9    5
 0.02472858190100814   10    6   10    6
 0.003609597628559044   10    7    7    2
 0.007119111900608988   10    7    7    4
 -0.005812191363839211   10    7    8    1
 -0.004047871503303854   10    7    8    3
 0.01173226955485313   10    7    8    5
 -0.007150508516416833   10    7    9    1
 -0.004979935767052276   10    7    9    3
 0.01443374591738512   10    7    9    5
 0.02472858190100816   10    7   10    7
 0.01430692932429744   10    8    6    1
 0.006004302547249519   10    8    6    3
 -0.01877770424806428   10    8    6    5
 -0.01162918845153811   10    8    7    1
 -0.004880513788757666   10    8    7    3
 0.01526319564724002   10    8    7    5
 0.007675507660486132   10    8    8    2
 0.009318438076449149   10    8    8    4
 0.02867101133352438   10    8   10    8
 -0.01162918845153811   10    9    6    1
 -0.004880513788757664   10    9    6    3
 0.01526319564724003   10    9    6    5
 -0.01430692932429744   10    9    7    1
 -0.006004302547249524   10    9    7    3
 0.0187777042480643   10    9    7    5
 0.007675507660486137   10    9    9    2
 0.009318438076449156   10    9    9    4
 0.02867101133352441   10    9   10    9
 0.5029027059704384   10   10    1    1
 0.4415929014370337   10   10    2    2
 0.1260924737010417   10   10    3    1
 0.4316733982667102   10   10    3    3
 0.1368035032261768   10   10    4    2
 0.4505406688991554   10   10    4    4
 -0.02209245304614046   10   10    5    1
 -0.0185498870787704   10   10    5    3
 0.5758814597593458   10   10    5    5
 0.5220386572767824   10   10    6    6
 0.5220386572767828   10   10    7    7
 0.5185872257728587   10   10    8    8
 0.5185872257728591   10   10    9    9
 -0.008071071971960674   10   10   10    2
 0.04957995934673121   10   10   10    4
 0.5753844991837314   10   10   10   10
 -0.9116839668780359    1    1  0  0
 -0.6530029555320535    2    2  0  0
 -0.1055713310232075    3    1  0  0
 -0.1089909110419846    3    3  0  0
 -0.1634333094588164    4    2  0  0
 -0.09250655534852191    4    4  0  0
 0.03639466191269063    5    1  0  0
 0.01934090926611503    5    3  0  0
 0.341255540277386    5    5  0  0
 0.4742698087311851    6    6  0  0
 0.4742698087311855    7    7  0  0
 0.6879367315135849    8    8  0  0
 0.6879367315135853    9    9  0  0
 -0.02502569584978037   10    2  0  0
 -0.08774366343196771   10    4  0  0
 1.159677132258642   10   10  0  0
 0.3494302766244057  0  0  0  0
