 &FCI NORB=  12,NELEC=12,MS2=0,
  ORBSYM=1,1,1,1,1,1,1,1,1,1,1,1,
  ISYM=1,
 &END
 0.2856626199881832    1    1    1    1
 -0.04209811060511505    2    1    1    1
 0.1242346627822864    2    1    2    1
 0.2320826487422394    2    2    1    1
 0.04569925163091255    2    2    2    1
 0.2836843243618603    2    2    2    2
 -0.03434615993728445    3    1    1    1
 -0.0114090645948043    3    1    2    1
 0.01813725231560398    3    1    2    2
 0.08970073032731049    3    1    3    1
 -0.01768796096958728    3    2    1    1
 0.05872385604440496    3    2    2    1
 0.02782225035209668    3    2    2    2
 -0.01136732628510118    3    2    3    1
 0.07169374301798756    3    2    3    2
 0.2439461870798338    3    3    1    1
 -0.02148193917665649    3    3    2    1
 0.2127670042207756    3    3    2    2
 -0.0178901148262109    3    3    3    1
 -0.01660994837572528    3    3    3    2
 0.2576462888084562    3    3    3    3
 0.01906917209474732    4    1    1    1
 -0.03178566303041543    4    1    2    1
 -0.005732367170028691    4    1    2    2
 -0.01353185598571089    4    1    3    1
 0.0330180344872063    4    1    3    2
 -0.0008707915990989183    4    1    3    3
 0.06215822518140963    4    1    4    1
 -0.04624000066720563    4    2    1    1
 -0.002971342538288712    4    2    2    1
 -0.01062439741713438    4    2    2    2
 0.05442748143923082    4    2    3    1
 0.01478395941814551    4    2    3    2
 -0.000132254853684708    4    2    3    3
 0.009763317572161636    4    2    4    1
 0.07535408452806353    4    2    4    2
 -0.02595570358204487    4    3    1    1
 0.08099820702237243    4    3    2    1
 0.03052354232301602    4    3    2    2
 -0.01148019265907667    4    3    3    1
 0.05295150227089025    4    3    3    2
 -0.02116483859067968    4    3    3    3
 -0.001989804471682655    4    3    4    1
 0.003780225716501521    4    3    4    2
 0.0935010445666406    4    3    4    3
 0.2225358331663404    4    4    1    1
 0.0199766885448343    4    4    2    1
 0.233712113403614    4    4    2    2
 -0.006915176779135274    4    4    3    1
 0.01041887431621052    4    4    3    2
 0.2253719981987842    4    4    3    3
 -0.002871452681873035    4    4    4    1
 -0.003164277698063888    4    4    4    2
 0.01910771767985829    4    4    4    3
 0.2469962833327549    4    4    4    4
 0.02290577795302815    5    1    1    1
 -0.01105620921337457    5    1    2    1
 0.03558273386849137    5    1    2    2
 0.02439873934958639    5    1    3    1
 -0.0002214930031339836    5    1    3    2
 -0.02237148309685523    5    1    3    3
 0.008868703339365803    5    1    4    1
 -0.02128813528044966    5    1    4    2
 0.0001326261383822734    5    1    4    3
 -0.003991858721440075    5    1    4    4
 0.05599510220033153    5    1    5    1
 -0.01226013878253915    5    2    1    1
 0.04388917924122817    5    2    2    1
 0.01983621497523119    5    2    2    2
 0.001357013945743495    5    2    3    1
 0.0004990646585592391    5    2    3    2
 -0.00183465231798809    5    2    3    3
 -0.03565846956445035    5    2    4    1
 -0.01376865795794758    5    2    4    2
 -0.0119201551878221    5    2    4    3
 0.0001428561497705239    5    2    4    4
 -0.004753458824785915    5    2    5    1
 0.05783994386428219    5    2    5    2
 0.04746871701309613    5    3    1    1
 0.002690567687731994    5    3    2    1
 0.009042456055088643    5    3    2    2
 -0.05943599659050346    5    3    3    1
 0.001475941814055011    5    3    3    2
 0.0197938104011318    5    3    3    3
 0.007272481482385998    5    3    4    1
 -0.05050670023540426    5    3    4    2
 0.009807974661613608    5    3    4    3
 -0.00806341781731218    5    3    4    4
 0.003229574172072952    5    3    5    1
 -0.00328587774790717    5    3    5    2
 0.07367576136945007    5    3    5    3
 0.02262891860688759    5    4    1    1
 -0.0683519951466374    5    4    2    1
 -0.02936997754757746    5    4    2    2
 0.008095568701224985    5    4    3    1
 -0.05940252895854625    5    4    3    2
 0.01863705640705877    5    4    3    3
 -0.01301519667434916    5    4    4    1
 -0.00946884459663039    5    4    4    2
 -0.06756588062382965    5    4    4    3
 -0.01611582990012956    5    4    4    4
 -0.0001327924935141994    5    4    5    1
 0.001591494413085612    5    4    5    2
 -0.003376367920921691    5    4    5    3
 0.08130554603023878    5    4    5    4
 0.2345761490978235    5    5    1    1
 -0.01149481281926623    5    5    2    1
 0.2260553364783083    5    5    2    2
 0.0004257830818960549    5    5    3    1
 -0.007743239202468586    5    5    3    2
 0.2311842400609699    5    5    3    3
 0.0005519419151698707    5    5    4    1
 -0.003804228910540623    5    5    4    2
 -0.0090743024402671    5    5    4    3
 0.2239340664733974    5    5    4    4
 0.004641560048876604    5    5    5    1
 -0.001375858805687843    5    5    5    2
 0.005532836502221097    5    5    5    3
 0.01008905721768503    5    5    5    4
 0.2418349497840991    5    5    5    5
 -0.0006544464749481915    6    1    1    1
 0.01157191702912823    6    1    2    1
 0.003057531521537177    6    1    2    2
 -0.01399545117068705    6    1    3    1
 0.02690370320567261    6    1    3    2
 0.002953699908471078    6    1    3    3
 0.01894733320532592    6    1    4    1
 0.001495023236047483    6    1    4    2
 -0.02168567896411763    6    1    4    3
 -0.001535392286036182    6    1    4    4
 -0.01038614547813202    6    1    5    1
 0.02804818133168964    6    1    5    2
 -0.002560615124663083    6    1    5    3
 -0.005877313151878803    6    1    5    4
 -0.002223083312691666    6    1    5    5
 0.05061860915167664    6    1    6    1
 0.01206106935931791    6    2    1    1
 0.004400432525103553    6    2    2    1
 0.03996174797633024    6    2    2    2
 0.03134901629795038    6    2    3    1
 0.006261913664286978    6    2    3    2
 -0.008444696402709232    6    2    3    3
 0.0007191725178823143    6    2    4    1
 -0.001231908200170128    6    2    4    2
 -0.002967810930571761    6    2    4    3
 -0.01483297219249899    6    2    4    4
 0.03828205608122133    6    2    5    1
 0.01214668385212429    6    2    5    2
 0.009960520408559277    6    2    5    3
 -0.001377258986771318    6    2    5    4
 0.006725370615367508    6    2    5    5
 0.002007274526962831    6    2    6    1
 0.05129382155002419    6    2    6    2
 -0.02113871636650748    6    3    1    1
 0.04225055665109066    6    3    2    1
 0.009641313030996027    6    3    2    2
 0.006095637787475382    6    3    3    1
 -0.0114300623063833    6    3    3    2
 -0.004039004822851125    6    3    3    3
 -0.04646691022227122    6    3    4    1
 -0.007155624310483926    6    3    4    2
 0.01089036789762047    6    3    4    3
 0.003313757448524956    6    3    4    4
 -0.008919163770197018    6    3    5    1
 0.0351984932496161    6    3    5    2
 -0.008018761061577147    6    3    5    3
 0.01923893457620356    6    3    5    4
 -0.0003152387477227646    6    3    5    5
 -0.00625732561833813    6    3    6    1
 0.0002638352164403331    6    3    6    2
 0.05933786794782753    6    3    6    3
 0.04687326964323435    6    4    1    1
 0.001212881899675298    6    4    2    1
 0.005322375687776182    6    4    2    2
 -0.06031301941202555    6    4    3    1
 -0.008161492694877627    6    4    3    2
 0.02197144945053827    6    4    3    3
 -0.001930121157078793    6    4    4    1
 -0.05486738224214997    6    4    4    2
 0.001400148884031102    6    4    4    3
 0.006556710568454098    6    4    4    4
 -0.00263129490739465    6    4    5    1
 0.003044478560366406    6    4    5    2
 0.057129162726218    6    4    5    3
 0.008336606972182399    6    4    5    4
 -0.005302744163829202    6    4    5    5
 -0.0004168309324712269    6    4    6    1
 -0.008533810109552868    6    4    6    2
 0.002743428364851381    6    4    6    3
 0.06970501750830116    6    4    6    4
 -0.02802101617569003    6    5    1    1
 0.089282608110968    6    5    2    1
 0.0336949068684194    6    5    2    2
 -0.01384297372501151    6    5    3    1
 0.05760660570896577    6    5    3    2
 -0.01853506136057103    6    5    3    3
 -0.00489617093204033    6    5    4    1
 0.002318861068158995    6    5    4    2
 0.07779824022741434    6    5    4    3
 0.01730765257716518    6    5    4    4
 -0.005391057366141244    6    5    5    1
 0.01166909439318322    6    5    5    2
 0.00738606049768941    6    5    5    3
 -0.06887092036734356    6    5    5    4
 -0.01060652780236051    6    5    5    5
 0.002511014932243961    6    5    6    1
 0.0008412189280790679    6    5    6    2
 0.0142540367510559    6    5    6    3
 0.0003283133110944473    6    5    6    4
 0.09145182962171738    6    5    6    5
 0.2468621506128231    6    6    1    1
 0.005979723509371176    6    6    2    1
 0.236552410936941    6    6    2    2
 -0.02254491953531718    6    6    3    1
 0.001070874824773688    6    6    3    2
 0.2352637189467147    6    6    3    3
 -0.0002465528273846752    6    6    4    1
 -0.02338937010350572    6    6    4    2
 0.00590062237357037    6    6    4    3
 0.2315136076879898    6    6    4    4
 0.004154889323969697    6    6    5    1
 0.002126831492875947    6    6    5    2
 0.02667282551901471    6    6    5    3
 -0.001775221131548755    6    6    5    4
 0.2315831292638876    6    6    5    5
 -0.0007787229881052495    6    6    6    1
 0.003465286155090979    6    6    6    2
 0.0008164120298216025    6    6    6    3
 0.02727916369852442    6    6    6    4
 0.006127096395331079    6    6    6    5
 0.251440137638833    6    6    6    6
 -0.004239531945239797    7    1    1    1
 0.002361243821014962    7    1    2    1
 0.002334788009956057    7    1    2    2
 0.0107784269353918    7    1    3    1
 -0.003267516395065944    7    1    3    2
 0.02016855638260832    7    1    3    3
 -0.008148875304017046    7    1    4    1
 0.02369577882003217    7    1    4    2
 0.002450745034806776    7    1    4    3
 -0.01388812317282241    7    1    4    4
 -0.01581812153599996    7    1    5    1
 -0.0004379652640391957    7    1    5    2
 0.01589088802657001    7    1    5    3
 3.236055609575012e-05    7    1    5    4
 0.003278218389824415    7    1    5    5
 -0.006971408878178119    7    1    6    1
 0.01570312943720167    7    1    6    2
 0.001743305164708817    7    1    6    3
 -0.002130879370062924    7    1    6    4
 0.00156810183494713    7    1    6    5
 0.00164782607998078    7    1    6    6
 0.04432588028733138    7    1    7    1
 0.002237535840934485    7    2    1    1
 0.00185416716496328    7    2    2    1
 0.005908677220016068    7    2    2    2
 -0.003830948180760286    7    2    3    1
 0.0279183403852684    7    2    3    2
 0.001043022583134104    7    2    3    3
 0.0279213183233994    7    2    4    1
 0.01155834853338366    7    2    4    2
 -0.00221770756692023    7    2    4    3
 -0.005240237095040221    7    2    4    4
 -0.0007116356409635797    7    2    5    1
 0.000209784857738273    7    2    5    2
 0.001294955931540645    7    2    5    3
 0.008777694729566521    7    2    5    4
 0.0007185520336435297    7    2    5    5
 0.02521302848992782    7    2    6    1
 0.009456881596970289    7    2    6    2
 0.004236095720609638    7    2    6    3
 -0.001017379937249637    7    2    6    4
 0.003018157305280217    7    2    6    5
 0.0004348904948696332    7    2    6    6
 0.001902812811012336    7    2    7    1
 0.04401471216587259    7    2    7    2
 0.01528753370384835    7    3    1    1
 -0.005366770492671778    7    3    2    1
 0.03585529623001521    7    3    2    2
 0.03158598683943788    7    3    3    1
 0.0006908196527463774    7    3    3    2
 -0.00677844182744107    7    3    3    3
 0.003054752186686808    7    3    4    1
 -0.00135329979427945    7    3    4    2
 -0.003634365953659458    7    3    4    3
 0.005412768975345277    7    3    4    4
 0.03579817086401621    7    3    5    1
 0.001656799474425848    7    3    5    2
 -0.008586495047505284    7    3    5    3
 -0.001770234854835474    7    3    5    4
 -0.007825266049986644    7    3    5    5
 -0.002978504832008636    7    3    6    1
 0.02786310066701269    7    3    6    2
 -0.006587392265259282    7    3    6    3
 0.00464046200579543    7    3    6    4
 -0.003432413203652815    7    3    6    5
 0.003704103023767634    7    3    6    6
 -0.005663982999024559    7    3    7    1
 0.0003880128832080925    7    3    7    2
 0.04866115688680132    7    3    7    3
 -0.01424668459674236    7    4    1    1
 0.04530692738933127    7    4    2    1
 0.01938288027344493    7    4    2    2
 0.003488273237826396    7    4    3    1
 -0.001853890892749205    7    4    3    2
 -0.004823697443616855    7    4    3    3
 -0.03777490779751903    7    4    4    1
 -0.01164877670465793    7    4    4    2
 0.01063891283399569    7    4    4    3
 0.006264582010001679    7    4    4    4
 -0.002156853504756448    7    4    5    1
 0.037109518409276    7    4    5    2
 -0.003298844429494114    7    4    5    3
 -0.001078278769247146    7    4    5    4
 -0.002171170757482146    7    4    5    5
 0.002535444683937939    7    4    6    1
 0.005095380296443148    7    4    6    2
 0.03705219506842743    7    4    6    3
 0.005779995623271432    7    4    6    4
 0.002559953809345284    7    4    6    5
 0.001665879647445972    7    4    6    6
 -0.0004537127178439104    7    4    7    1
 -0.006628891260242883    7    4    7    2
 0.002447898615235292    7    4    7    3
 0.05266061738084662    7    4    7    4
 -0.0431919441460156    7    5    1    1
 -0.001706976982501721    7    5    2    1
 -0.006228056335690337    7    5    2    2
 0.05509903283273392    7    5    3    1
 0.002855678664458594    7    5    3    2
 -0.02065839267787041    7    5    3    3
 -0.002586441396897655    7    5    4    1
 0.04691658812741425    7    5    4    2
 -0.003972053104152653    7    5    4    3
 -0.006416204209982602    7    5    4    4
 0.00224571949787224    7    5    5    1
 -0.0003710760312376016    7    5    5    2
 -0.05148213085316853    7    5    5    3
 -0.002682808286885721    7    5    5    4
 -0.006931898871452478    7    5    5    5
 -0.0004683301705577427    7    5    6    1
 0.005823181083776743    7    5    6    2
 0.0008505679765566983    7    5    6    3
 -0.04890802846277537    7    5    6    4
 -0.004208462514356132    7    5    6    5
 -0.01388977423853643    7    5    6    6
 0.001441424950800354    7    5    7    1
 0.0007863693980716454    7    5    7    2
 0.009555103121608018    7    5    7    3
 -0.0003562213820607193    7    5    7    4
 0.05951745208691057    7    5    7    5
 -0.02351531608897799    7    6    1    1
 0.06560400410915342    7    6    2    1
 0.02752922542856515    7    6    2    2
 -0.00349520151536736    7    6    3    1
 0.04678764270411407    7    6    3    2
 -0.01752600765840978    7    6    3    3
 0.0006694238738504002    7    6    4    1
 0.006357283832295555    7    6    4    2
 0.05693880852682887    7    6    4    3
 0.01323298179164051    7    6    4    4
 -5.264640210210459e-05    7    6    5    1
 0.007660365965369694    7    6    5    2
 -0.0008195929881397307    7    6    5    3
 -0.05498576681941202    7    6    5    4
 -0.008578654992158421    7    6    5    5
 0.004341598667188867    7    6    6    1
 0.002937967036321496    7    6    6    2
 0.004582157713741789    7    6    6    3
 -0.005470339957674136    7    6    6    4
 0.05733749962475061    7    6    6    5
 0.002006458759660531    7    6    6    6
 -0.001150946825722957    7    6    7    1
 0.001825902765488569    7    6    7    2
 0.001747182032173842    7    6    7    3
 0.01206831367267373    7    6    7    4
 0.00409208523902293    7    6    7    5
 0.06612185436856624    7    6    7    6
 0.2483998348578395    7    7    1    1
 0.006534158087982245    7    7    2    1
 0.2386638072051241    7    7    2    2
 -0.02233122559480637    7    7    3    1
 0.00151405554361864    7    7    3    2
 0.2364972092872531    7    7    3    3
 -0.0002385614345906222    7    7    4    1
 -0.02330277607271477    7    7    4    2
 0.006391897068093559    7    7    4    3
 0.2330020839764652    7    7    4    4
 0.004416531582821084    7    7    5    1
 0.002238918508274227    7    7    5    2
 0.02631133142973269    7    7    5    3
 -0.002282205262633334    7    7    5    4
 0.2319890886345528    7    7    5    5
 -0.0008274078293086917    7    7    6    1
 0.003580295693686093    7    7    6    2
 0.0009821653129449236    7    7    6    3
 0.02678837973185656    7    7    6    4
 0.006610338624166594    7    7    6    5
 0.2467886453978112    7    7    6    6
 0.001225253398770089    7    7    7    1
 0.0002820978745657298    7    7    7    2
 0.004176243099420281    7    7    7    3
 0.002338997628713066    7    7    7    4
 -0.01913889861696227    7    7    7    5
 0.00235330395733372    7    7    7    6
 0.2544196604510817    7    7    7    7
 0.0009016215624714462    8    1    1    1
 -0.002072112090555419    8    1    2    1
 0.0002014210567060214    8    1    2    2
 -0.001109514947844617    8    1    3    1
 0.00811142888805718    8    1    3    2
 -0.008850255195886158    8    1    3    3
 0.01173650658163357    8    1    4    1
 -0.0001411337916926454    8    1    4    2
 0.01581803956820145    8    1    4    3
 0.0005983124716813102    8    1    4    4
 0.008846029679304632    8    1    5    1
 -0.0176062686939576    8    1    5    2
 -0.001163894106778761    8    1    5    3
 0.01355144644934778    8    1    5    4
 0.002759390170171778    8    1    5    5
 -0.01113048117543612    8    1    6    1
 -0.0004365914156413075    8    1    6    2
 0.01385530470128646    8    1    6    3
 -0.0003733365977622843    8    1    6    4
 0.002128276129201841    8    1    6    5
 -1.980135946537832e-06    8    1    6    6
 -0.00847144548265549    8    1    7    1
 0.02329710625964271    8    1    7    2
 -0.002302362658084371    8    1    7    3
 -0.003731424559237749    8    1    7    4
 -0.001449195169090978    8    1    7    5
 0.0001450348846229611    8    1    7    6
 0.0002752882076866792    8    1    7    7
 0.03581997236598644    8    1    8    1
 -0.001628174971026268    8    2    1    1
 0.0002363370456439827    8    2    2    1
 0.003614400605508029    8    2    2    2
 0.009115012552984443    8    2    3    1
 0.002329256329284231    8    2    3    2
 0.02146357393658083    8    2    3    3
 -0.000141873582127465    8    2    4    1
 0.02548607323560518    8    2    4    2
 0.001643874018729511    8    2    4    3
 -4.334892645776241e-05    8    2    4    4
 -0.01789473008181248    8    2    5    1
 -0.003838001568753763    8    2    5    2
 0.00303186498886416    8    2    5    3
 0.002127947518413268    8    2    5    4
 -0.007700505759378092    8    2    5    5
 -0.0007261712603070197    8    2    6    1
 0.002301331347385771    8    2    6    2
 0.001070392326642994    8    2    6    3
 0.008741864849642046    8    2    6    4
 0.0004947826275085165    8    2    6    5
 0.002658822466396398    8    2    6    6
 0.02884137426057571    8    2    7    1
 0.00957905309012862    8    2    7    2
 0.01056902627633005    8    2    7    3
 -0.0004526656936042516    8    2    7    4
 0.003935314100270741    8    2    7    5
 -0.0001218350093607472    8    2    7    6
 0.002497421839403868    8    2    7    7
 -0.003143635686139826    8    2    8    1
 0.03817116694322419    8    2    8    2
 -0.002083520403929326    8    3    1    1
 0.01227010750983884    8    3    2    1
 0.002989405748017558    8    3    2    2
 -0.0124510513211198    8    3    3    1
 0.02726951912224358    8    3    3    2
 -0.002772538824602003    8    3    3    3
 0.02027978705820042    8    3    4    1
 0.001955958760621747    8    3    4    2
 -0.002188786583298605    8    3    4    3
 -0.001129963605592103    8    3    4    4
 -0.00437878988228796    8    3    5    1
 0.009736341555013954    8    3    5    2
 0.000840289365258994    8    3    5    3
 -0.006473682714027143    8    3    5    4
 0.0002677747226073269    8    3    5    5
 0.0296672944361742    8    3    6    1
 0.001258483516320987    8    3    6    2
 -0.004339184314653305    8    3    6    3
 -0.001036933228758604    8    3    6    4
 -0.008071021382080802    8    3    6    5
 -0.0006555214556938733    8    3    6    6
 -0.005773073449749044    8    3    7    1
 0.02395526308180536    8    3    7    2
 -0.005953264976600526    8    3    7    3
 0.01724833594121961    8    3    7    4
 0.0006381212382596331    8    3    7    5
 0.007755992948613052    8    3    7    6
 -0.001125941652062948    8    3    7    7
 0.005089551652238853    8    3    8    1
 -0.001742617550449328    8    3    8    2
 0.04198522333456073    8    3    8    3
 0.01986422945546167    8    4    1    1
 -0.0001916452561355596    8    4    2    1
 0.03964688355261393    8    4    2    2
 0.02523284068939832    8    4    3    1
 0.002383878911830203    8    4    3    2
 -0.00196048564816917    8    4    3    3
 0.001325842740246724    8    4    4    1
 -0.00500366770772287    8    4    4    2
 -0.001479147077386436    8    4    4    3
 0.005160815671608683    8    4    4    4
 0.03392495911799238    8    4    5    1
 0.005078949751758995    8    4    5    2
 -0.0009038388107574687    8    4    5    3
 -0.001825057829726054    8    4    5    4
 0.003211964174140259    8    4    5    5
 -0.001889356211715432    8    4    6    1
 0.03118161161385765    8    4    6    2
 -0.002523305906651396    8    4    6    3
 0.0002911751904390815    8    4    6    4
 -0.001584435880150044    8    4    6    5
 -0.002695806115749994    8    4    6    6
 -0.001539436771461749    8    4    7    1
 0.00205414427466938    8    4    7    2
 0.03549515921841298    8    4    7    3
 0.005884433201905881    8    4    7    4
 -0.01026976352473311    8    4    7    5
 0.001539749092427466    8    4    7    6
 0.002971305230579279    8    4    7    7
 0.0001144453173014008    8    4    8    1
 0.002988889729703114    8    4    8    2
 -0.002895342196964979    8    4    8    3
 0.04508039144877893    8    4    8    4
 0.01844898310913392    8    5    1    1
 -0.03492732024655113    8    5    2    1
 -0.007190130790502502    8    5    2    2
 -0.005727488970131717    8    5    3    1
 0.01159378419393436    8    5    3    2
 0.002027247862726203    8    5    3    3
 0.04112839042451701    8    5    4    1
 0.006095132127945269    8    5    4    2
 -0.003026963553859726    8    5    4    3
 -0.001784540418344966    8    5    4    4
 0.009269230673054168    8    5    5    1
 -0.03464719733463165    8    5    5    2
 0.006687617444390923    8    5    5    3
 -0.009668317496427719    8    5    5    4
 0.001388816186136019    8    5    5    5
 0.0007894369783808573    8    5    6    1
 -0.0005564416098943195    8    5    6    2
 -0.04125888259964507    8    5    6    3
 -0.001434785083862074    8    5    6    4
 -0.004681532761549966    8    5    6    5
 -0.0004720083279957344    8    5    6    6
 -0.003373334268924807    8    5    7    1
 0.006134340999125039    8    5    7    2
 0.004612969266639972    8    5    7    3
 -0.03815214483495099    8    5    7    4
 -0.00385382687797925    8    5    7    5
 0.01744840129185537    8    5    7    6
 -0.0003221440847434478    8    5    7    7
 0.002313464847265708    8    5    8    1
 -0.0006248417718889647    8    5    8    2
 -0.00235295228883247    8    5    8    3
 0.00309460664951858    8    5    8    4
 0.05828828854876267    8    5    8    5
 -0.04455071994069015    8    6    1    1
 -0.001807015841030488    8    6    2    1
 -0.007260973800351274    8    6    2    2
 0.05586528905830145    8    6    3    1
 0.002781015730993031    8    6    3    2
 -0.02157346185567397    8    6    3    3
 -0.002736904359880334    8    6    4    1
 0.04793513158764087    8    6    4    2
 -0.00392449663512887    8    6    4    3
 -0.007616704590522237    8    6    4    4
 0.001911268248961708    8    6    5    1
 -0.0005314255923554575    8    6    5    2
 -0.05241760312806976    8    6    5    3
 -0.002536554785451736    8    6    5    4
 -0.008485958117742182    8    6    5    5
 -0.000742210184554842    8    6    6    1
 0.005724780261407636    8    6    6    2
 0.001217467926999692    8    6    6    3
 -0.05030948365406622    8    6    6    4
 -0.003993041455324714    8    6    6    5
 -0.02001331481257208    8    6    6    6
 0.001542370922359088    8    6    7    1
 0.0007735629302034507    8    6    7    2
 0.009279679452641531    8    6    7    3
 -0.0003465249407025583    8    6    7    4
 0.05629346661307884    8    6    7    5
 0.003914909985438309    8    6    7    6
 -0.01619355982447472    8    6    7    7
 -0.001070264732937718    8    6    8    1
 0.003869553758554069    8    6    8    2
 -0.0001137284787235864    8    6    8    3
 -0.006496811303407491    8    6    8    4
 -0.003886625075967412    8    6    8    5
 0.06007327185754652    8    6    8    6
 -0.02866212124572495    8    7    1    1
 0.09095747944690641    8    7    2    1
 0.03459652727515686    8    7    2    2
 -0.01368981517109992    8    7    3    1
 0.05906920718037841    8    7    3    2
 -0.01883921556723921    8    7    3    3
 -0.004561600245314002    8    7    4    1
 0.002811108412673531    8    7    4    2
 0.07894037771240314    8    7    4    3
 0.01773253833385884    8    7    4    4
 -0.005374111885330291    8    7    5    1
 0.0117639871922895    8    7    5    2
 0.007178347023937983    8    7    5    3
 -0.07000671455341553    8    7    5    4
 -0.01021791065887303    8    7    5    5
 0.002792700679538282    8    7    6    1
 0.0009677760808558199    8    7    6    2
 0.01374107661884337    8    7    6    3
 -3.733573003758019e-05    8    7    6    4
 0.08747134569548962    8    7    6    5
 0.00610387682228263    8    7    6    6
 0.001674709461377015    8    7    7    1
 0.002966884232448917    8    7    7    2
 -0.003644113961428655    8    7    7    3
 0.008067263075201244    8    7    7    4
 -0.003537889733127061    8    7    7    5
 0.05851402837750047    8    7    7    6
 0.006697361647614018    8    7    7    7
 0.002301372209921845    8    7    8    1
 0.0006366214826848818    8    7    8    2
 -0.002480173446806539    8    7    8    3
 -0.001462964907324806    8    7    8    4
 -0.00534383559601484    8    7    8    5
 -0.003765443095327803    8    7    8    6
 0.09302489946864524    8    7    8    7
 0.2399442469583791    8    8    1    1
 -0.01148913184387319    8    8    2    1
 0.2320588754760192    8    8    2    2
 0.0009695669066927329    8    8    3    1
 -0.007288740093978566    8    8    3    2
 0.2358825777529186    8    8    3    3
 0.001045257154690711    8    8    4    1
 -0.00409835933266285    8    8    4    2
 -0.009172074294103223    8    8    4    3
 0.2290802122229935    8    8    4    4
 0.005464983063195894    8    8    5    1
 -0.001273398974839589    8    8    5    2
 0.005909788311599221    8    8    5    3
 0.009354251270708533    8    8    5    4
 0.2417386990856169    8    8    5    5
 -0.001681489867497965    8    8    6    1
 0.006960837067811326    8    8    6    2
 -0.001429756877092771    8    8    6    3
 -0.0003677411674589777    8    8    6    4
 -0.01006866736861194    8    8    6    5
 0.2356959142587494    8    8    6    6
 0.003230628265543212    8    8    7    1
 0.0008591824517912498    8    8    7    2
 -0.001721354331072091    8    8    7    3
 -0.002046958369696636    8    8    7    4
 -0.008275310438532135    8    8    7    5
 -0.008217222920011279    8    8    7    6
 0.238845061063847    8    8    7    7
 0.001471374026572301    8    8    8    1
 -0.003400667922446064    8    8    8    2
 -0.0006066122555676472    8    8    8    3
 0.00664653689815807    8    8    8    4
 0.001983279913865658    8    8    8    5
 -0.00856161325901468    8    8    8    6
 -0.01045470536094725    8    8    8    7
 0.2515844615046544    8    8    8    8
 0.001137472912683227    9    1    1    1
 -0.001077898653558073    9    1    2    1
 0.0003198553989259077    9    1    2    2
 -0.0002575350455970874    9    1    3    1
 0.0007038145453674622    9    1    3    2
 0.006086789150085876    9    1    3    3
 0.001366075675542771    9    1    4    1
 0.004006461243599527    9    1    4    2
 -0.003543508402143441    9    1    4    3
 0.01559574741937533    9    1    4    4
 -0.007573058656193698    9    1    5    1
 0.000393705670026999    9    1    5    2
 -0.01397886353556258    9    1    5    3
 -0.0007633706923176024    9    1    5    4
 -0.01271739335666582    9    1    5    5
 0.00580284147816814    9    1    6    1
 -0.01607961759419687    9    1    6    2
 -0.002140878974613558    9    1    6    3
 0.01190986491547049    9    1    6    4
 -0.0002772931471952424    9    1    6    5
 0.0002568683472405639    9    1    6    6
 -0.0115937235049615    9    1    7    1
 -0.0007742177029836345    9    1    7    2
 0.0172825984745956    9    1    7    3
 0.0008603267624878869    9    1    7    4
 0.00206742474515592    9    1    7    5
 0.0005724853682128046    9    1    7    6
 0.00118642945407485    9    1    7    7
 -0.004556880201189061    9    1    8    1
 0.0133988031497017    9    1    8    2
 -0.001498797926717954    9    1    8    3
 0.005009751264354075    9    1    8    4
 0.0009387002665681384    9    1    8    5
 0.002433474178771832    9    1    8    6
 -0.0007016742976050145    9    1    8    7
 -0.007979425280541652    9    1    8    8
 0.02909665189786548    9    1    9    1
 -0.0009484065625964922    9    2    1    1
 0.0007287922207692183    9    2    2    1
 1.874070472451163e-05    9    2    2    2
 0.0007889389498197589    9    2    3    1
 0.002541663771962222    9    2    3    2
 -0.0008054050813238356    9    2    3    3
 0.00342868357923628    9    2    4    1
 0.005019097811659616    9    2    4    2
 0.01956458671869009    9    2    4    3