 &FCI NORB=   2,NELEC= 2,MS2=0,
  ORBSYM=1,1,
  ISYM=1,
 &END
 0.609171678537237    1    1    1    1
 0.2032222266206498    2    1    2    1
 0.6073354277197851    2    2    1    1
 0.6374798771540353    2    2    2    2
 -1.063390372655936    1    1  0  0
 -0.6147527176739523    2    2  0  0
 0.4810701917454545  0  0  0  0