 &FCI NORB=   6,NELEC= 6,MS2=0,
  ORBSYM=1,1,1,1,1,1,
  ISYM=1,
 &END
 0.4098946230437186    1    1    1    1
 -0.03168526147480246    2    1    1    1
 0.1367204986639167    2    1    2    1
 0.3322159295240681    2    2    1    1
 0.03288545391794003    2    2    2    1
 0.3808933846190343    2    2    2    2
 -0.06280076430620868    3    1    1    1
 -0.0185569023112096    3    1    2    1
 0.02823828038558136    3    1    2    2
 0.1073541208431966    3    1    3    1
 -0.02899764273597423    3    2    1    1
 0.0971832612754671    3    2    2    1
 0.03199503117151685    3    2    2    2
 -0.002646000903044625    3    2    3    1
 0.1158474680174298    3    2    3    2
 0.3621210244652862    3    3    1    1
 -0.00488212822901501    3    3    2    1
 0.3344235287751204    3    3    2    2
 -0.02909258828138352    3    3    3    1
 -0.01146330370668509    3    3    3    2
 0.3681138843558227    3    3    3    3
 -0.02204263751392337    4    1    1    1
 0.04417207281612492    4    1    2    1
 0.005378189680248487    4    1    2    2
 0.006893880379426912    4    1    3    1
 -0.02164520054713735    4    1    3    2
 0.002302439016215655    4    1    3    3
 0.08176023611558723    4    1    4    1
 0.06692234775954659    4    2    1    1
 0.005879700644528334    4    2    2    1
 0.007760966690505218    4    2    2    2
 -0.06278836592679712    4    2    3    1
 -0.009707830565627774    4    2    3    2
 0.009016997168622599    4    2    3    3
 -0.001922780559128574    4    2    4    1
 0.08181115261025154    4    2    4    2
 0.01597747695329845    4    3    1    1
 -0.0901058454111226    4    3    2    1
 -0.02299576640387866    4    3    2    2
 0.01714164840988616    4    3    3    1
 -0.07475197699978986    4    3    3    2
 0.003068243519471108    4    3    3    3
 -0.01490306410102465    4    3    4    1
 -0.006772139310842463    4    3    4    2
 0.1101623992773382    4    3    4    3
 0.3669161464545114    4    4    1    1
 -0.004877158363304103    4    4    2    1
 0.3391743541436626    4    4    2    2
 -0.02860316052509732    4    4    3    1
 -0.01027442087014586    4    4    3    2
 0.3625655942738614    4    4    3    3
 -0.0006335241500866427    4    4    4    1
 0.01854178180839626    4    4    4    2
 0.002902260771204649    4    4    4    3
 0.3758621932857068    4    4    4    4
 0.01467963729142478    5    1    1    1
 -0.007075512163161004    5    1    2    1
 0.03465099463777837    5    1    2    2
 0.02725468557635365    5    1    3    1
 0.002334530496358071    5    1    3    2
 -0.01704803810741297    5    1    3    3
 -0.01026580020775549    5    1    4    1
 0.02848945201682662    5    1    4    2
 0.001358870658550153    5    1    4    3
 -0.008234740387639605    5    1    4    4
 0.05495913821360721    5    1    5    1
 -0.005928407860352475    5    2    1    1
 0.03969221210600994    5    2    2    1
 0.01585190681462556    5    2    2    2
 0.001766537241303877    5    2    3    1
 -0.001588341362546296    5    2    3    2
 -0.001578354668756563    5    2    3    3
 0.04986844807398538    5    2    4    1
 0.01427875456295107    5    2    4    2
 0.02991683895627883    5    2    4    3
 -0.0008689157547757831    5    2    4    4
 0.007186463795045813    5    2    5    1
 0.08781915715706871    5    2    5    2
 0.06996870954771843    5    3    1    1
 0.005229030978181257    5    3    2    1
 0.00982311258161289    5    3    2    2
 -0.06460560807364264    5    3    3    1
 -0.008561181827061178    5    3    3    2
 0.01995965840231943    5    3    3    3
 -0.003107083541652455    5    3    4    1
 0.07546689644068488    5    3    4    2
 -0.007495470012954614    5    3    4    3
 0.01522205814163479    5    3    4    4
 0.02201751970932422    5    3    5    1
 0.01162693259650806    5    3    5    2
 0.08144160307504303    5    3    5    3
 -0.02972908855972321    5    4    1    1
 0.1012498101514601    5    4    2    1
 0.0310697086043181    5    4    2    2
 -0.004304575936833481    5    4    3    1
 0.1105852753281373    5    4    3    2
 -0.01160062837251602    5    4    3    3
 -0.01198476520496668    5    4    4    1
 -0.007349593067374893    5    4    4    2
 -0.07784026328887607    5    4    4    3
 -0.01069876764667017    5    4    4    4
 0.001648702288280373    5    4    5    1
 0.001491843659059624    5    4    5    2
 -0.007480218649833299    5    4    5    3
 0.1198087256608356    5    4    5    4
 0.3494965388156678    5    5    1    1
 0.02533678603530214    5    5    2    1
 0.3859259745900466    5    5    2    2
 0.01967362965532327    5    5    3    1
 0.02472248112956534    5    5    3    2
 0.3495920168561222    5    5    3    3
 0.003275022884342382    5    5    4    1
 0.01248770570642427    5    5    4    2
 -0.0187207289827846    5    5    4    3
 0.357611403365842    5    5    4    4
 0.03361425698302268    5    5    5    1
 0.01395544650022797    5    5    5    2
 0.01410976506393639    5    5    5    3
 0.02555930149841967    5    5    5    4
 0.4100135292149849    5    5    5    5
 -0.0006101248873658691    6    1    1    1
 0.005658184610147432    6    1    2    1
 -0.004751335542209315    6    1    2    2
 -0.01069003282491097    6    1    3    1
 0.02305065523635292    6    1    3    2
 0.001151265316649447    6    1    3    3
 -0.0223859263099092    6    1    4    1
 -0.004834361940165043    6    1    4    2
 0.04232654763660802    6    1    4    3
 0.001479338038346097    6    1    4    4
 -0.01044103203227557    6    1    5    1
 0.03762429407516169    6    1    5    2
 -0.004665366805141638    6    1    5    3
 0.02104572024774494    6    1    5    4
 -0.005328369912472262    6    1    5    5
 0.06737867983034948    6    1    6    1
 0.01451414887467766    6    2    1    1
 -0.004963059721245631    6    2    2    1
 0.0357830344695752    6    2    2    2
 0.02681742070859574    6    2    3    1
 0.003069375237872082    6    2    3    2
 -0.01072130472237328    6    2    3    3
 -0.007768742104928299    6    2    4    1
 0.02367693103477384    6    2    4    2
 0.002763655797506107    6    2    4    3
 -0.01201717325224368    6    2    4    4
 0.05060513106274331    6    2    5    1
 0.01057368194587995    6    2    5    2
 0.02540800082147898    6    2    5    3
 0.002395879925393941    6    2    5    4
 0.0356909223861254    6    2    5    5
 -0.007953024366145462    6    2    6    1
 0.05241527815909288    6    2    6    2
 -0.01990100395027256    6    3    1    1
 0.0458941862052861    6    3    2    1
 0.006305906671203348    6    3    2    2
 0.003854900715489015    6    3    3    1
 -0.01440903656808518    6    3    3    2
 0.001432708310743988    6    3    3    3
 0.07609782881610182    6    3    4    1
 0.0008057073610851073    6    3    4    2
 -0.01765690619278544    6    3    4    3
 0.001343297863547047    6    3    4    4
 -0.00898784353774796    6    3    5    1
 0.04951498970614718    6    3    5    2
 -0.001417401774817368    6    3    5    3
 -0.01501497036599376    6    3    5    4
 0.004374033738949224    6    3    5    5
 -0.02176536134050732    6    3    6    1
 -0.007883680115857531    6    3    6    2
 0.08104246137665316    6    3    6    3
 -0.06778176693155107    6    4    1    1
 -0.01472755072202618    6    4    2    1
 0.02157839412213521    6    4    2    2
 0.1035939803935528    6    4    3    1
 0.001176326598560634    6    4    3    2
 -0.03326639659393018    6    4    3    3
 0.006421013441293401    6    4    4    1
 -0.06421754527586278    6    4    4    2
 0.01490161592769366    6    4    4    3
 -0.0334316895649962    6    4    4    4
 0.02542420839566527    6    4    5    1
 0.001753008244406136    6    4    5    2
 -0.06694304221796968    6    4    5    3
 -0.001103064030186696    6    4    5    4
 0.02215560680209588    6    4    5    5
 -0.009751233761320035    6    4    6    1
 0.02637268416399071    6    4    6    2
 0.004379676115625697    6    4    6    3
 0.112490501200227    6    4    6    4
 -0.03308632680188636    6    5    1    1
 0.1411728131796989    6    5    2    1
 0.03555097850637112    6    5    2    2
 -0.01743320972245173    6    5    3    1
 0.1026072779376015    6    5    3    2
 -0.005068131412315776    6    5    3    3
 0.04556970272107808    6    5    4    1
 0.005250659159160446    6    5    4    2
 -0.09635430457588959    6    5    4    3
 -0.004729904312221176    6    5    4    4
 -0.006785349104151528    6    5    5    1
 0.04173786050519258    6    5    5    2
 0.004769428344140827    6    5    5    3
 0.1097678951152443    6    5    5    4
 0.02945569622950788    6    5    5    5
 0.005256918701114497    6    5    6    1
 -0.004804684687957285    6    5    6    2
 0.05096776465707529    6    5    6    3
 -0.01499134612941848    6    5    6    4
 0.1597194504606402    6    5    6    5
 0.4353935807926287    6    6    1    1
 -0.02568827533002461    6    6    2    1
 0.355594258453881    6    6    2    2
 -0.07061577834886162    6    6    3    1
 -0.02621542529662801    6    6    3    2
 0.3895648068354922    6    6    3    3
 -0.02074621829632707    6    6    4    1
 0.07416940175579599    6    6    4    2
 0.01205134412986447    6    6    4    3
 0.3979166502632995    6    6    4    4
 0.01478891565209463    6    6    5    1
 -0.003836526625358599    6    6    5    2
 0.07999988347879279    6    6    5    3
 -0.02719215202676304    6    6    5    4
 0.3839598650447215    6    6    5    5
 -0.0001987002303270636    6    6    6    1
 0.01561412076098295    6    6    6    2
 -0.01955213031129973    6    6    6    3
 -0.08058307804565149    6    6    6    4
 -0.02908605817236794    6    6    6    5
 0.4876508581650014    6    6    6    6
 -2.192258908035302    1    1  0  0
 0.005917952953690977    2    1  0  0
 -1.992940510918315    2    2  0  0
 0.1326000855765179    3    1  0  0
 0.01890668793886697    3    2  0  0
 -1.86004704338017    3    3  0  0
 0.02970253786725998    4    1  0  0
 -0.1902195940841727    4    2  0  0
 0.008154400162067558    4    3  0  0
 -1.656663434525604    4    4  0  0
 -0.07479895803113616    5    1  0  0
 -0.01647506452183107    5    2  0  0
 -0.1538769470899264    5    3  0  0
 0.01703738184619626    5    4  0  0
 -1.351003147888429    5    5  0  0
 0.006702114552496472    6    1  0  0
 -0.0521195725505627    6    2  0  0
 0.01813699991453025    6    3  0  0
 0.1425736808227068    6    4  0  0
 0.003922174984293929    6    5  0  0
 -1.222591010122219    6    6  0  0
 4.413966092937137  0  0  0  0
