 &FCI NORB=  19,NELEC= 4,MS2=0,
  ORBSYM=1,1,1,1,1,1,1,1,1,1,1,1,1,1,1,1,1,1,1,
  ISYM=1,
 &END
 1.989684712335231    1    1    1    1
 -0.1584292445970253    2    1    1    1
 0.02164183957689697    2    1    2    1
 0.4557479627423128    2    2    1    1
 -0.005276450071549224    2    2    2    1
 0.3308549361142222    2    2    2    2
 -0.01255450419051322    3    1    1    1
 0.00228623315088575    3    1    2    1
 0.0002734979205740409    3    1    2    2
 0.002444346710402459    3    1    3    1
 0.01277456084799615    3    2    1    1
 0.0008298173030652352    3    2    2    1
 0.01044312099276321    3    2    2    2
 0.003450722961737577    3    2    3    1
 0.03131802704103278    3    2    3    2
 0.2433978281974702    3    3    1    1
 -0.0007544040679701918    3    3    2    1
 0.2122393389902844    3    3    2    2
 -0.000217787364553596    3    3    3    1
 -0.002023432194949755    3    3    3    2
 0.1807664214038761    3    3    3    3
 0.001712895655726549    4    1    4    1
 0.002926954952405251    4    2    4    1
 0.02980373356840864    4    2    4    2
 -4.311192539052326e-05    4    3    4    1
 -0.001891297983416406    4    3    4    2
 0.009462495122257022    4    3    4    3
 0.235560972490991    4    4    1    1
 -0.000639907320278535    4    4    2    1
 0.2086240981461686    4    4    2    2
 -0.0001503900503357024    4    4    3    1
 0.001515272353297216    4    4    3    2
 0.1595313571509757    4    4    3    3
 0.1761692667667748    4    4    4    4
 0.001712895655726558    5    1    5    1
 0.002926954952405265    5    2    5    1
 0.02980373356840873    5    2    5    2
 -4.311192539052377e-05    5    3    5    1
 -0.001891297983416409    5    3    5    2
 0.009462495122257027    5    3    5    3
 0.009168134942499512    5    4    5    4
 0.2355609724909914    5    5    1    1
 -0.0006399073202785551    5    5    2    1
 0.2086240981461688    5    5    2    2
 -0.0001503900503357111    5    5    3    1
 0.001515272353297245    5    5    3    2
 0.1595313571509758    5    5    3    3
 0.1578329968817758    5    5    4    4
 0.176169266766775    5    5    5    5
 -0.07058007672878736    6    1    1    1
 0.009087195672411832    6    1    2    1
 -0.00444931855069343    6    1    2    2
 0.001741897838224689    6    1    3    1
 0.000986972299361582    6    1    3    2
 -0.001405544956976451    6    1    3    3
 -0.001307793306911733    6    1    4    4
 -0.001307793306911738    6    1    5    5
 0.004208914747849054    6    1    6    1
 0.09736430914172571    6    2    1    1
 -0.00205606670632562    6    2    2    1
 0.05106452321927445    6    2    2    2
 0.0002327975367019916    6    2    3    1
 0.002933214179354621    6    2    3    2
 0.01860872050255844    6    2    3    3
 0.01737012709203149    6    2    4    4
 0.01737012709203155    6    2    5    5
 -0.001391672606548509    6    2    6    1
 0.01496452276647526    6    2    6    2
 0.01261027894917992    6    3    1    1
 -0.0001984206188780434    6    3    2    1
 0.004889561666946909    6    3    2    2
 0.0004026426080443123    6    3    3    1
 -0.008005690146189763    6    3    3    2
 0.00568313498370972    6    3    3    3
 0.002753107131511924    6    3    4    4
 0.002753107131511929    6    3    5    5
 -0.0001035895184193721    6    3    6    1
 0.00261391087479454    6    3    6    2
 0.01636016651146214    6    3    6    3
 0.0002782802336161876    6    4    4    1
 -0.009227101952720069    6    4    4    2
 0.001584350624820361    6    4    4    3
 0.01798485211627397    6    4    6    4
 0.0002782802336161914    6    5    5    1
 -0.009227101952720029    6    5    5    2
 0.001584350624820359    6    5    5    3
 0.01798485211627392    6    5    6    5
 0.1846089123921878    6    6    1    1
 -0.0007936798577798858    6    6    2    1
 0.1655750777296898    6    6    2    2
 0.000266186373714382    6    6    3    1
 0.007606633104916034    6    6    3    2
 0.141606356774786    6    6    3    3
 0.1425063392452456    6    6    4    4
 0.1425063392452457    6    6    5    5
 -0.0007855908793125096    6    6    6    1
 0.008113621805410596    6    6    6    2
 -0.005604751082793723    6    6    6    3
 0.1360468829613549    6    6    6    6
 0.0005755198936482818    7    1    1    1
 0.001110581031163792    7    1    2    1
 0.002114042115802225    7    1    2    2
 0.003601213285964632    7    1    3    1
 0.005483192328561572    7    1    3    2
 0.0001612665999407469    7    1    3    3
 0.0003280412154109665    7    1    4    4
 0.0003280412154109679    7    1    5    5
 0.001673300250672312    7    1    6    1
 0.0008408208985814282    7    1    6    2
 0.000376567041431809    7    1    6    3
 0.0009383909174317559    7    1    6    6
 0.005593364934505162    7    1    7    1
 -0.007305916456630361    7    2    1    1
 0.001651191604610366    7    2    2    1
 -2.881104312669969e-05    7    2    2    2
 0.00456846775548977    7    2    3    1
 0.03115211553861606    7    2    3    2
 -0.004053717951736705    7    2    3    3
 -0.002185078294677373    7    2    4    4
 -0.002185078294677386    7    2    5    5
 0.001671740476420653    7    2    6    1
 0.0007111425754437749    7    2    6    2
 -0.0005145082211467077    7    2    6    3
 0.00330975983823968    7    2    6    6
 0.007001480973684201    7    2    7    1
 0.03659934605763943    7    2    7    2
 0.1307218437678452    7    3    1    1
 -0.001230481899373742    7    3    2    1
 0.08501708006798309    7    3    2    2
 -0.0001315273793239668    7    3    3    1
 0.003469268735785707    7    3    3    2
 0.03973932415000059    7    3    3    3
 0.03599816790882167    7    3    4    4
 0.03599816790882177    7    3    5    5
 -0.001483500565493725    7    3    6    1
 0.02001560286811489    7    3    6    2
 -0.0007564529772836011    7    3    6    3
 0.02053796534134329    7    3    6    6
 0.0004371567095429428    7    3    7    1
 -0.002452557730474203    7    3    7    2
 0.03968057861161765    7    3    7    3
 -8.066481722534405e-05    7    4    4    1
 0.0004846462005278432    7    4    4    2
 0.001055903363270234    7    4    4    3
 -0.001784821124604813    7    4    6    4
 0.004546463468050163    7    4    7    4
 -8.066481722534531e-05    7    5    5    1
 0.0004846462005278273    7    5    5    2
 0.001055903363270253    7    5    5    3
 -0.001784821124604804    7    5    6    5
 0.00454646346805017    7    5    7    5
 0.005920575044831477    7    6    1    1
 0.0002661353443650822    7    6    2    1
 0.002062598132276407    7    6    2    2
 0.001618881791885067    7    6    3    1
 0.01600874494766505    7    6    3    2
 -0.003960975597613426    7    6    3    3
 -0.001950383096454546    7    6    4    4
 -0.001950383096454547    7    6    5    5
 0.000463255875608319    7    6    6    1
 0.0008169680533630547    7    6    6    2
 -0.01062158052286898    7    6    6    3
 0.005348162326711991    7    6    6    6
 0.00285066590400237    7    6    7    1
 0.01335787711261764    7    6    7    2
 0.002304670562209724    7    6    7    3
 0.01384169917184474    7    6    7    6
 0.3097965765162515    7    7    1    1
 -0.002195648733526862    7    7    2    1
 0.2366304406776825    7    7    2    2
 -0.0008268281126658582    7    7    3    1
 -0.003174638345401283    7    7    3    2
 0.1805537457405213    7    7    3    3
 0.1621345161008846    7    7    4    4
 0.1621345161008848    7    7    5    5
 -0.002531058491956473    7    7    6    1
 0.02922298507037714    7    7    6    2
 0.005729879327970565    7    7    6    3
 0.1399106406751198    7    7    6    6
 -0.0005358926661194993    7    7    7    1
 -0.009115697138692857    7    7    7    2
 0.05291493521998507    7    7    7    3
 -0.003974031655686908    7    7    7    6
 0.1965421665787341    7    7    7    7
 7.357013087034944e-05    8    1    4    1
 0.0001224205237100387    8    1    4    2
 -2.623250322062251e-06    8    1    4    3
 0.002979605915838104    8    1    5    1
 0.004958057194559665    8    1    5    2
 -0.0001062421948401283    8    1    5    3
 4.751339263358211e-06    8    1    6    4
 0.0001924302486589801    8    1    6    5
 -2.43076602831245e-06    8    1    7    4
 -9.844654008760878e-05    8    1    7    5
 0.005204426370481507    8    1    8    1
 9.89702094506476e-05    8    2    4    1
 0.0007682998348859357    8    2    4    2
 -2.401960339911059e-05    8    2    4    3
 0.004008314489620369    8    2    5    1
 0.03111630638795323    8    2    5    2
 -0.0009727990359321758    8    2    5    3
 -2.839085224196187e-05    8    2    6    4
 -0.001149835541884842    8    2    6    5
 -1.549733315588789e-05    8    2    7    4
 -0.0006276452821916844    8    2    7    5
 0.006709282876483337    8    2    8    1
 0.03787489256245545    8    2    8    2
 1.737728278795224e-06    8    3    4    1
 2.16184595870217e-05    8    3    4    2
 3.618803654989628e-05    8    3    4    3
 7.037836413179454e-05    8    3    5    1
 0.0008755522018889799    8    3    5    2
 0.001465623161343315    8    3    5    3
 -2.125614993040099e-05    8    3    6    4
 -0.0008608785838940232    8    3    6    5
 0.0001111819540933362    8    3    7    4
 0.004502892739646639    8    3    7    5
 0.0001546170638384794    8    3    8    1
 0.0005005532496263252    8    3    8    2
 0.004588747760005628    8    3    8    3
 0.003136833789226193    8    4    1    1
 -2.956023076238982e-05    8    4    2    1
 0.002076705495260688    8    4    2    2
 -3.008392658050097e-06    8    4    3    1
 5.171922216396167e-05    8    4    3    2
 0.000923958832770345    8    4    3    3
 0.0009575249674272592    8    4    4    4
 0.001360289684344835    8    4    5    4
 0.0008903505202516409    8    4    5    5
 -3.569103720752059e-05    8    4    6    1
 0.0004900888704047643    8    4    6    2
 4.059172821803743e-05    8    4    6    3
 0.0004785467571540696    8    4    6    6
 8.946847047511026e-06    8    4    7    1
 -5.652263881354685e-05    8    4    7    2
 0.0007379722718835132    8    4    7    3
 7.746707658422612e-06    8    4    7    6
 0.001174547646465083    8    4    7    7
 0.004381369486301184    8    4    8    4
 0.1270424342706482    8    5    1    1
 -0.001197195620167848    8    5    2    1
 0.08410701334807862    8    5    2    2
 -0.0001218405411957897    8    5    3    1
 0.002094639475276409    8    5    3    2
 0.03742052884159008    8    5    3    3
 0.0360593850510676    8    5    4    4
 3.358722358785337e-05    8    5    5    4
 0.0387799644197574    8    5    5    5
 -0.001445494582486586    8    5    6    1
 0.01984870327494543    8    5    6    2
 0.001643973608606138    8    5    6    3
 0.01938124523842743    8    5    6    6
 0.0003623492044324537    8    5    7    1
 -0.002289178869131308    8    5    7    2
 0.02988803364919422    8    5    7    3
 0.0003137433044394834    8    5    7    6
 0.04756942898482251    8    5    7    7
 0.0008364279607572976    8    5    8    4
 0.03823622699853895    8    5    8    5
 3.642129903904035e-05    8    6    4    1
 0.0004005867481633077    8    6    4    2
 -2.820278907230336e-05    8    6    4    3
 0.001475070341664571    8    6    5    1
 0.01622384832694098    8    6    5    2
 -0.001142218943596298    8    6    5    3
 -0.0002938540062809154    8    6    6    4
 -0.01190114962620286    8    6    6    5
 2.473918995053964e-05    8    6    7    4
 0.001001942444000427    8    6    7    5
 0.002786055927900463    8    6    8    1
 0.01424334521933099    8    6    8    2
 0.001056197225637925    8    6    8    3
 0.01468912783546025    8    6    8    6
 -6.823709449965027e-06    8    7    4    1
 -7.689770372885197e-05    8    7    4    2
 0.0001932706405698274    8    7    4    3
 -0.0002763616810864036    8    7    5    1
 -0.003114373322899724    8    7    5    2
 0.00782750196563501    8    7    5    3
 2.993684617058372e-05    8    7    6    4
 0.001212448624137999    8    7    6    5
 6.151793748644859e-05    8    7    7    4
 0.002491489525658253    8    7    7    5
 -0.0005278908719237525    8    7    8    1
 -0.00303343653622587    8    7    8    2
 0.002779276125161039    8    7    8    3
 -0.001653584798906371    8    7    8    6
 0.009282933579155753    8    7    8    7
 0.3106334233714786    8    8    1    1
 -0.002067745550307842    8    8    2    1
 0.2391654072574895    8    8    2    2
 -0.0002368507613750473    8    8    3    1
 0.003043323203622961    8    8    3    2
 0.1650252121971565    8    8    3    3
 0.1627007461639497    8    8    4    4
 0.000374518699152714    8    8    5    4
 0.1778595856460763    8    8    5    5
 -0.002340944634963901    8    8    6    1
 0.02980134614772499    8    8    6    2
 0.003566383102423349    8    8    6    3
 0.142067866271493    8    8    6    6
 0.0005243277922009386    8    8    7    1
 -0.003473295747641707    8    8    7    2
 0.04857381178909065    8    8    7    3
 -0.0009256280469412936    8    8    7    6
 0.1782958979261388    8    8    7    7
 0.001327768570765766    8    8    8    4
 0.05377490894082577    8    8    8    5
 0.197144815943303    8    8    8    8
 0.002979605915838111    9    1    4    1
 0.004958057194559674    9    1    4    2
 -0.0001062421948401281    9    1    4    3
 -7.357013087034568e-05    9    1    5    1
 -0.0001224205237100351    9    1    5    2
 2.623250322062882e-06    9    1    5    3
 0.0001924302486589793    9    1    6    4
 -4.751339263355591e-06    9    1    6    5
 -9.844654008760779e-05    9    1    7    4
 2.430766028312346e-06    9    1    7    5
 0.005204426370481561    9    1    9    1
 0.004008314489620366    9    2    4    1
 0.03111630638795321    9    2    4    2
 -0.0009727990359321739    9    2    4    3
 -9.897020945064503e-05    9    2    5    1
 -0.0007682998348859433    9    2    5    2
 2.401960339911707e-05    9    2    5    3
 -0.001149835541884895    9    2    6    4
 2.839085224198841e-05    9    2    6    5
 -0.0006276452821916698    9    2    7    4
 1.549733315588755e-05    9    2    7    5
 0.006709282876483376    9    2    9    1
 0.03787489256245554    9    2    9    2
 7.037836413179458e-05    9    3    4    1
 0.0008755522018889789    9    3    4    2
 0.001465623161343319    9    3    4    3
 -1.737728278794668e-06    9    3    5    1
 -2.161845958701545e-05    9    3    5    2
 -3.618803654990361e-05    9    3    5    3
 -0.0008608785838940268    9    3    6    4
 2.125614993039915e-05    9    3    6    5
 0.004502892739646632    9    3    7    4
 -0.0001111819540933368    9    3    7    5
 0.0001546170638384808    9    3    9    1
 0.0005005532496263291    9    3    9    2
 0.004588747760005627    9    3    9    3
 0.1270424342706483    9    4    1    1
 -0.001197195620167857    9    4    2    1
 0.08410701334807863    9    4    2    2
 -0.0001218405411957924    9    4    3    1
 0.002094639475276401    9    4    3    2
 0.0374205288415901    9    4    3    3
 0.0387799644197573    9    4    4    4
 -3.35872235877844e-05    9    4    5    4
 0.0360593850510677    9    4    5    5
 -0.00144549458248659    9    4    6    1
 0.01984870327494543    9    4    6    2
 0.001643973608606124    9    4    6    3
 0.01938124523842727    9    4    6    6
 0.00036234920443245    9    4    7    1
 -0.002289178869131312    9    4    7    2
 0.02988803364919424    9    4    7    3
 0.0003137433044394929    9    4    7    6
 0.04756942898482246    9    4    7    7
 0.0008364279607572913    9    4    8    4
 0.02951479289394575    9    4    8    5
 0.04818926033447998    9    4    8    8
 0.03823622699853893    9    4    9    4
 -0.00313683378922617    9    5    1    1
 2.956023076238828e-05    9    5    2    1
 -0.002076705495260706    9    5    2    2
 3.008392658049939e-06    9    5    3    1
 -5.171922216395701e-05    9    5    3    2
 -0.0009239588327703686    9    5    3    3
 -0.0008903505202516355    9    5    4    4
 0.001360289684344856    9    5    5    4
 -0.0009575249674272988    9    5    5    5
 3.56910372075179e-05    9    5    6    1
 -0.0004900888704047634    9    5    6    2
 -4.059172821803573e-05    9    5    6    3
 -0.0004785467571540762    9    5    6    6
 -8.946847047510473e-06    9    5    7    1
 5.65226388135512e-05    9    5    7    2
 -0.0007379722718835104    9    5    7    3
 -7.746707658421499e-06    9    5    7    6
 -0.001174547646465108    9    5    7    7
 0.00434006461829201    9    5    8    4
 -0.0008364279607572998    9    5    8    5
 -0.001189852044026376    9    5    8    8
 -0.0008364279607572932    9    5    9    4
 0.004381369486301195    9    5    9    5
 0.001475070341664564    9    6    4    1
 0.01622384832694094    9    6    4    2
 -0.001142218943596299    9    6    4    3
 -3.642129903903816e-05    9    6    5    1
 -0.0004005867481632904    9    6    5    2
 2.820278907230404e-05    9    6    5    3
 -0.01190114962620288    9    6    6    4
 0.0002938540062809147    9    6    6    5
 0.001001942444000437    9    6    7    4
 -2.473918995053812e-05    9    6    7    5
 0.002786055927900479    9    6    9    1
 0.014243345219331    9    6    9    2
 0.001056197225637921    9    6    9    3
 0.01468912783546022    9    6    9    6
 -0.0002763616810864023    9    7    4    1
 -0.00311437332289971    9    7    4    2
 0.007827501965635005    9    7    4    3
 6.823709449965054e-06    9    7    5    1
 7.689770372885406e-05    9    7    5    2
 -0.0001932706405698298    9    7    5    3
 0.001212448624138004    9    7    6    4
 -2.99368461705844e-05    9    7    6    5
 0.00249148952565825    9    7    7    4
 -6.151793748644499e-05    9    7    7    5
 -0.0005278908719237533    9    7    9    1
 -0.003033436536225865    9    7    9    2
 0.002779276125161062    9    7    9    3
 -0.00165358479890636    9    7    9    6
 0.009282933579155748    9    7    9    7
 0.0003745186991525676    9    8    4    4
 0.007579419741063226    9    8    5    4
 -0.0003745186991527742    9    8    5    5
 0.002792824303172935    9    8    8    4
 -6.895826336975886e-05    9    8    8    5
 6.895826336965811e-05    9    8    9    4
 0.002792824303172961    9    8    9    5
 0.009026579527068472    9    8    9    8
 0.3106334233714793    9    9    1    1
 -0.002067745550307979    9    9    2    1
 0.23916540725749    9    9    2    2
 -0.0002368507613750497    9    9    3    1
 0.003043323203622955    9    9    3    2
 0.1650252121971566    9    9    3    3
 0.1778595856460764    9    9    4    4
 -0.000374518699152626    9    9    5    4
 0.16270074616395    9    9    5    5
 -0.002340944634963885    9    9    6    1
 0.02980134614772507    9    9    6    2
 0.003566383102423287    9    9    6    3
 0.1420678662714923    9    9    6    6
 0.0005243277922009513    9    9    7    1
 -0.003473295747641721    9    9    7    2
 0.04857381178909089    9    9    7    3
 -0.0009256280469412583    9    9    7    6
 0.178295897926139    9    9    7    7
 0.001189852044026324    9    9    8    4
 0.04818926033448009    9    9    8    5
 0.1790916568891664    9    9    8    8
 0.05377490894082592    9    9    9    4
 -0.001327768570765788    9    9    9    5
 0.1971448159433033    9    9    9    9
 -0.0005172672329634176   10    1    1    1
 0.0002348949665894104   10    1    2    1
 0.0003864593133098629   10    1    2    2
 0.000227996243994879   10    1    3    1
 0.0002976135801334208   10    1    3    2
 0.0005857017972414612   10    1    3    3
 -0.0001436462507239683   10    1    4    4
 -0.0001436462507241957   10    1    5    5
 0.0001572762563312512   10    1    6    1
 0.0001490835022376961   10    1    6    2
 0.0001210660936370879   10    1    6    3
 6.228594960139286e-05   10    1    6    6
 0.000328042653362455   10    1    7    1
 0.0004277829757518244   10    1    7    2
 0.0005384503698356854   10    1    7    3
 0.0001932921028496342   10    1    7    6
 0.0007981723990155978   10    1    7    7
 -1.943206824628405e-06   10    1    8    4
 -7.870028885235051e-05   10    1    8    5
 -0.0001452861302833892   10    1    8    8
 -7.870028885216902e-05   10    1    9    4
 1.94320682465207e-06   10    1    9    5
 -0.0001452861302830895   10    1    9    9
 0.000117331192286774   10    1   10    1
 0.0007665018639244194   10    2    1    1
 0.0002021878976703277   10    2    2    1
 0.0006456973722537844   10    2    2    2
 0.0003585768148591885   10    2    3    1
 0.002775724107297094   10    2    3    2
 0.01364210101260786   10    2    3    3
 -0.006783361030409401   10    2    4    4
 -0.006783361030416071   10    2    5    5
 0.0001590215359261294   10    2    6    1
 0.0002178677481764013   10    2    6    2
 -0.0006512372095709496   10    2    6    3
 0.0004981314749034431   10    2    6    6
 0.0005530820695908731   10    2    7    1
 0.003071795441883102   10    2    7    2
 0.008666669730169208   10    2    7    3
 0.001909096113639178   10    2    7    6
 0.01372182959972698   10    2    7    7
 -0.000104493583770268   10    2    8    4
 -0.004232012321938942   10    2    8    5
 -0.007213406513578765   10    2    8    8
 -0.004232012321934783   10    2    9    4
 0.000104493583770811   10    2    9    5
 -0.007213406513571648   10    2    9    9
 0.0008305383209952919   10    2   10    1
 0.02387958375072274   10    2   10    2
 0.001670242294272783   10    3    1    1
 0.0007175236798371867   10    3    2    1
 0.004532936490482439   10    3    2    2
 0.002306780705642601   10    3    3    1
 0.02804793000605179   10    3    3    2
 -0.005841610738304457   10    3    3    3
 0.0003478015558929906   10    3    4    4
 0.0003478015558934208   10    3    5    5
 0.0007613870118766041   10    3    6    1
 0.0008678598211070763   10    3    6    2
 -0.01008105106070262   10    3    6    3
 0.006540515924174369   10    3    6    6
 0.003626617923619539   10    3    7    1
 0.02579462175718941   10    3    7    2
 0.001255725677829104   10    3    7    3
 0.01400614917667817   10    3    7    6
 -0.006379481258317715   10    3    7    7
 8.608189232527151e-06   10    3    8    4
 0.0003486334910442228   10    3    8    5
 0.000619735922523256   10    3    8    8
 0.0003486334910441373   10    3    9    4
 -8.608189232534473e-06   10    3    9    5
 0.0006197359225229673   10    3    9    9
 5.286218089966747e-05   10    3   10    1
 0.000848127404429355   10    3   10    2
 0.03411308721497917   10    3   10    3
 -0.001001548756292723   10    4    4    1
 -0.0136563665287952   10    4    4    2
 0.001191992167501946   10    4    4    3
 0.005593953932243022   10    4    6    4
 -0.0002808558602395255   10    4    7    4
 -4.092988498238705e-05   10    4    8    1
 -0.0003228895405135584   10    4    8    2
 -6.632702665322767e-06   10    4    8    3
 -0.0001776499488523113   10    4    8    6
 4.015717237385759e-05   10    4    8    7
 -0.001657669029341099   10    4    9    1
 -0.01307709492557398   10    4    9    2
 -0.0002686258657669214   10    4    9    3
 -0.007194860635528967   10    4    9    6
 0.001626374004683783   10    4    9    7
 0.01121891619435273   10    4   10    4
 -0.001001548756293705   10    5    5    1
 -0.01365636652880858   10    5    5    2
 0.001191992167503155   10    5    5    3
 0.005593953932248479   10    5    6    5
 -0.0002808558602398033   10    5    7    5
 -0.001657669029342721   10    5    8    1
 -0.01307709492558671   10    5    8    2
 -0.0002686258657671988   10    5    8    3
 -0.007194860635536055   10    5    8    6
 0.001626374004685337   10    5    8    7
 4.092988498259757e-05   10    5    9    1
 0.0003228895405152216   10    5    9    2
 6.632702665356359e-06   10    5    9    3
 0.0001776499488532202   10    5    9    6
 -4.01571723740585e-05   10    5    9    7
 0.01121891619436732   10    5   10    5
 0.0005644501079328202   10    6    1    1
 7.177797542133049e-05   10    6    2    1
 0.0003590144366858517   10    6    2    2
 0.0001576255000254934   10    6    3    1
 -4.173063610250495e-05   10    6    3    2
 -0.001583033454593712   10    6    3    3
 0.001239515533209953   10    6    4    4
 0.001239515533211005   10    6    5    5
 4.435859710218695e-05   10    6    6    1
 0.0001660511556428662   10    6    6    2
 0.001494258785326417   10    6    6    3
 -0.0003059295214206928   10    6    6    6
 0.000228869669202004   10    6    7    1
 0.000623841898111982   10    6    7    2
 0.001905490252158252   10    6    7    3
 -0.0004288637356681875   10    6    7    6
 0.0007906970666222739   10    6    7    7
 -2.152807601314355e-05   10    6    8    4
 -0.0008718916479654493   10    6    8    5
 -0.0001384878629718148   10    6    8    8
 -0.0008718916479645453   10    6    9    4
 2.152807601325958e-05   10    6    9    5
 -0.0001384878629715526   10    6    9    9
 0.0001070191757182194   10    6   10    1
 0.0009215080592919941   10    6   10    2
 -0.0002839762985030836   10    6   10    3
 0.00230398403394685   10    6   10    6
 0.003563108447264364   10    7    1    1
 0.0007963490908981506   10    7    2    1
 0.005524671992194414   10    7    2    2
 0.002480069449918562   10    7    3    1
 0.02315582615404645   10    7    3    2
 -0.002178041123536181   10    7    3    3
 0.000737968808159322   10    7    4    4
 0.0007379688081594461   10    7    5    5
 0.0008142349837455263   10    7    6    1
 0.00169484820335684   10    7    6    2
 -0.002862954835777502   10    7    6    3
 0.004074709702625997   10    7    6    6
 0.003821982368417916   10    7    7    1
 0.02469685132733603   10    7    7    2
 -3.655550820472452e-05   10    7    7    3
 0.009999867451111489   10    7    7    6
 -0.004394244502928944   10    7    7    7
 2.568530066202288e-05   10    7    8    4
 0.001040260128632744   10    7    8    5
 0.001460705821442505   10    7    8    8
 0.001040260128632422   10    7    9    4
 -2.568530066206151e-05   10    7    9    5
 0.001460705821442155   10    7    9    9
 0.0001147102244352102   10    7   10    1
 0.0006340274849615507   10    7   10    2
 0.02589239885477523   10    7   10    3
 -0.0002082046035238763   10    7   10    6
 0.0235121361310854   10    7   10    7
 -2.726323969053337e-05   10    8    4    1
 -0.0002900352528095995   10    8    4    2
 1.700059368407429e-05   10    8    4    3
 -0.001104166994214414   10    8    5    1
 -0.01174648930010283   10    8    5    2
 0.0006885276526591092   10    8    5    3
 4.656090215659086e-05   10    8    6    4
 0.001885726420107161   10    8    6    5
 6.209220891914677e-06   10    8    7    4
 0.0002514747640579812   10    8    7    5
 -0.001821256778800805   10    8    8    1
 -0.01312282074851048   10    8    8    2
 -1.047857336643462e-05   10    8    8    3
 -0.005426194371501765   10    8    8    6
 0.001385851462496918   10    8    8    7
 0.0002192444928111713   10    8   10    4
 0.008879448494511872   10    8   10    5
 0.008506760221711086   10    8   10    8
 -0.001104166994213334   10    9    4    1
 -0.01174648930009144   10    9    4    2
 0.000688527652658436   10    9    4    3
 2.726323969067324e-05   10    9    5    1
 0.0002900352528110887   10    9    5    2
 -1.70005936841635e-05   10    9    5    3
 0.001885726420105378   10    9    6    4
 -4.656090215683758e-05   10    9    6    5
 0.0002514747640577978   10    9    7    4
 -6.209220891936417e-06   10    9    7    5
 -0.001821256778799038   10    9    9    1
 -0.01312282074849782   10    9    9    2
 -1.047857336635425e-05   10    9    9    3
 -0.005426194371496509   10    9    9    6
 0.001385851462495632   10    9    9    7
 0.008879448494500322   10    9   10    4
 -0.0002192444928126814   10    9   10    5
 0.008506760221700341   10    9   10    9
 0.2999556731743658   10   10    1    1
 -0.0002145653831760608   10   10    2    1
 0.2730731385407614   10   10    2    2
 -0.0002113233177263377   10   10    3    1
 0.002702760578239738   10   10    3    2
 0.2079817001108112   10   10    3    3
 0.1895319713445549   10   10    4    4
 0.1895319713445653   10   10    5    5
 -0.001739951359189604   10   10    6    1
 0.03088600613430525   10   10    6    2
 0.003173602255652006   10   10    6    3
 0.1572330475247747   10   10    6    6
 0.0004938258889779299   10   10    7    1
 -0.003851202388367387   10   10    7    2
 0.0679491249423646   10   10    7    3
 -0.001381100410746086   10   10    7    6
 0.2133642175948877   10   10    7    7
 0.001480599131533284   10   10    8    4
 0.0599645790908963   10   10    8    5
 0.2007003250709697   10   10    8    8
 0.05996457909089099   10   10    9    4
 -0.001480599131534004   10   10    9    5
 0.2007003250709607   10   10    9    9
 0.0006265484153440604   10   10   10    1
 0.01636171113460404   10   10   10    2
 -0.002344259813982495   10   10   10    3
 -8.984314723828997e-05   10   10   10    6
 -0.0005109695695803623   10   10   10    7
 0.2706295905308278   10   10   10   10
 -2.790078155551042e-05   11    1    4    1
 -3.606433561671667e-05   11    1    4    2
 -8.130198521818542e-05   11    1    4    3
 0.0001391691280532312   11    1    5    1
 0.000179888944387161   11    1    5    2
 0.0004055343886801232   11    1    5    3
 -1.776586733429656e-05   11    1    6    4
 8.861616514592389e-05   11    1    6    5
 -6.425413790601419e-05   11    1    7    4
 0.0003204997081677094   11    1    7    5
 0.0002337326310642443   11    1    8    1
 0.0003076937684840875   11    1    8    2
 0.0003572465157195441   11    1    8    3
 0.0001376211408569786   11    1    8    6
 0.0005352757112597477   11    1    8    7
 -5.289194536828413e-05   11    1    9    1
 -6.962879730878703e-05   11    1    9    2
 -8.084221320066471e-05   11    1    9    3
 -3.114263434499862e-05   11    1    9    6
 -0.0001211288879434986   11    1    9    7
 7.134412007897613e-06   11    1   10    4
 -3.558645467821946e-05   11    1   10    5
 -4.750757890791696e-05   11    1   10    8
 1.075060960352031e-05   11    1   10    9
 0.0001032362290815196   11    1   11    1
 -5.01778488517267e-05   11    2    4    1
 -0.0004616277815087485   11    2    4    2