 &FCI NORB=   8,NELEC= 8,MS2=0,
  ORBSYM=1,1,1,1,1,1,1,1,
  ISYM=1,
 &END
 0.3572479205609203    1    1    1    1
 -0.03761772930880956    2    1    1    1
 0.132289939034895    2    1    2    1
 0.2887301632229383    2    2    1    1
 0.03929248415896458    2    2    2    1
 0.3347759576868701    2    2    2    2
 -0.05398868106927244    3    1    1    1
 -0.01338307653991699    3    1    2    1
 0.01863298277826294    3    1    2    2
 0.09613722836941113    3    1    3    1
 -0.02244486832264012    3    2    1    1
 0.07481547634220954    3    2    2    1
 0.0300512557559027    3    2    2    2
 -0.007301883536462311    3    2    3    1
 0.09840430048486745    3    2    3    2
 0.2999198823573675    3    3    1    1
 -0.01528240349529213    3    3    2    1
 0.2822614960448575    3    3    2    2
 -0.007399856445085513    3    3    3    1
 -0.01558666574310494    3    3    3    2
 0.3120024502998784    3    3    3    3
 -0.02206866188892802    4    1    1    1
 0.03957036501201186    4    1    2    1
 0.005383885636988829    4    1    2    2
 0.01232495666042446    4    1    3    1
 -0.03587508211981014    4    1    3    2
 0.002442562673415418    4    1    3    3
 0.07570076738453557    4    1    4    1
 0.06093526101474611    4    2    1    1
 0.003615384490830883    4    2    2    1
 0.006265578705983394    4    2    2    2
 -0.06722252843440869    4    2    3    1
 -0.01509402742264805    4    2    3    2
 -0.006169355115040513    4    2    3    3
 0.004072569912007423    4    2    4    1
 0.08401408057559359    4    2    4    2
 0.02560787206298034    4    3    1    1
 -0.1000663328517375    4    3    2    1
 -0.03107058371808941    4    3    2    2
 0.01489759346816807    4    3    3    1
 -0.07554374464139563    4    3    3    2
 0.01558029845900883    4    3    3    3
 -0.01106708331034241    4    3    4    1
 -0.0001771956101149002    4    3    4    2
 0.1115227579865311    4    3    4    3
 0.3070890004671333    4    4    1    1
 0.00935983852035624    4    4    2    1
 0.295536040304315    4    4    2    2
 -0.02311308414458778    4    4    3    1
 0.002602646160040748    4    4    3    2
 0.2927917873888145    4    4    3    3
 0.0008547886905688473    4    4    4    1
 0.02557514491861599    4    4    4    2
 -0.009525723659435284    4    4    4    3
 0.314059385191151    4    4    4    4
 -0.01305137209228952    5    1    1    1
 0.009863862025090108    5    1    2    1
 -0.03586741502008363    5    1    2    2
 -0.02953574239440798    5    1    3    1
 -0.001959117457439971    5    1    3    2
 0.01985694810154126    5    1    3    3
 0.009609270699971586    5    1    4    1
 -0.01761523008702093    5    1    4    2
 -0.004000508255677853    5    1    4    3
 -0.003153558728466413    5    1    4    4
 0.06229304921994906    5    1    5    1
 0.01141290297689978    5    2    1    1
 -0.04731612096857755    5    2    2    1
 -0.01965317525684988    5    2    2    2
 -0.003020548953574695    5    2    3    1
 -0.0005441639698721325    5    2    3    2
 0.003378026624428924    5    2    3    3
 -0.04041256399921939    5    2    4    1
 -0.01203925754673782    5    2    4    2
 -0.004066781548533915    5    2    4    3
 -0.00189127698123797    5    2    4    4
 0.003289269574342587    5    2    5    1
 0.06483128701825258    5    2    5    2
 -0.05909784387586006    5    3    1    1
 -0.004438095063887806    5    3    2    1
 -0.007544721293182332    5    3    2    2
 0.06312258661456242    5    3    3    1
 0.004650920679582466    5    3    3    2
 -0.01600889846133657    5    3    3    3
 0.002536128853497367    5    3    4    1
 -0.05448831671469627    5    3    4    2
 0.007521927179219698    5    3    4    3
 -0.009631075448076086    5    3    4    4
 -0.007775115763258306    5    3    5    1
 0.0006168302933023525    5    3    5    2
 0.07517272652126092    5    3    5    3
 0.0260451851737332    5    4    1    1
 -0.07560991489246448    5    4    2    1
 -0.02701184342923311    5    4    2    2
 0.001312466365528677    5    4    3    1
 -0.06593279154969625    5    4    3    2
 0.01467734928394002    5    4    3    3
 0.0001789992768507515    5    4    4    1
 0.007628182869152688    5    4    4    2
 0.07012696458253281    5    4    4    3
 -0.004210385492317076    5    4    4    4
 0.001853883602154907    5    4    5    1
 0.01150131712124229    5    4    5    2
 -0.005996596354218441    5    4    5    3
 0.08857019162688326    5    4    5    4
 0.3106721614887101    5    5    1    1
 0.00927995504137695    5    5    2    1
 0.2989449886437486    5    5    2    2
 -0.02300220547012704    5    5    3    1
 0.002771978250189096    5    5    3    2
 0.2947556642106426    5    5    3    3
 0.0007856061395055229    5    5    4    1
 0.02567665477301404    5    5    4    2
 -0.00948168743732293    5    5    4    3
 0.3089494316037659    5    5    4    4
 -0.004353259865906456    5    5    5    1
 -0.002847372132671946    5    5    5    2
 -0.01748562146921011    5    5    5    3
 -0.003984267210050456    5    5    5    4
 0.319745234162693    5    5    5    5
 -0.001547082628437863    6    1    1    1
 0.01188846806066684    6    1    2    1
 -0.0005794146372395921    6    1    2    2
 -0.01203967355385765    6    1    3    1
 0.02595386904615746    6    1    3    2
 -1.279635589992523e-05    6    1    3    3
 -0.01984282136626755    6    1    4    1
 -0.001276935123878863    6    1    4    2
 0.01738884255420168    6    1    4    3
 -0.0002458671202865866    6    1    4    4
 0.009300326041400325    6    1    5    1
 -0.02870010362770015    6    1    5    2
 0.002661250439279381    6    1    5    3
 -0.007678597187643786    6    1    5    4
 -0.001214372640468147    6    1    5    5
 0.04871908326461442    6    1    6    1
 0.01415088703247282    6    2    1    1
 -0.0007953622571432164    6    2    2    1
 0.03962880579474638    6    2    2    2
 0.02812875116531528    6    2    3    1
 0.004228254694751336    6    2    3    2
 -0.001206249940015194    6    2    3    3
 -0.002392169751588992    6    2    4    1
 0.002597704517783581    6    2    4    2
 0.002606874206354093    6    2    4    3
 -0.008039156248356018    6    2    4    4
 -0.04142028364020615    6    2    5    1
 -0.0105444062940876    6    2    5    2
 -0.01428087601554232    6    2    5    3
 -0.001735751423624684    6    2    5    4
 -0.000391761691635341    6    2    5    5
 -0.004825889195919614    6    2    6    1
 0.05284974447092364    6    2    6    2
 -0.01953065492808967    6    3    1    1
 0.03821888681635224    6    3    2    1
 0.005006599833948494    6    3    2    2
 0.004980502506777777    6    3    3    1
 -0.01167626358003108    6    3    3    2
 -0.001499226879958084    6    3    3    3
 0.04733560432778824    6    3    4    1
 0.002890685854578925    6    3    4    2
 -0.006746833125468718    6    3    4    3
 0.001478017051565487    6    3    4    4
 0.008345490536296653    6    3    5    1
 -0.04082518287110784    6    3    5    2
 0.006082994736502069    6    3    5    3
 0.02756794072269792    6    3    5    4
 0.00104105817453169    6    3    5    5
 0.004392082473557837    6    3    6    1
 -0.004422316073265138    6    3    6    2
 0.07241642061079366    6    3    6    3
 -0.06145996047886869    6    4    1    1
 -0.004254877334279428    6    4    2    1
 -0.009295948231621994    6    4    2    2
 0.06425190737180791    6    4    3    1
 0.004778848174761671    6    4    3    2
 -0.01794375757424979    6    4    3    3
 0.003053641071249728    6    4    4    1
 -0.05654471083610166    6    4    4    2
 0.006774498062304182    6    4    4    3
 -0.01816796917189194    6    4    4    4
 -0.007390203435056499    6    4    5    1
 0.0007166798578198061    6    4    5    2
 0.07058208113911413    6    4    5    3
 -0.006141719265244953    6    4    5    4
 -0.01415174919610944    6    4    5    5
 0.001232310493582007    6    4    6    1
 -0.009322420193927358    6    4    6    2
 0.005865536994261565    6    4    6    3
 0.07562716804911275    6    4    6    4
 0.0262999321865015    6    5    1    1
 -0.1026257880855093    6    5    2    1
 -0.03238410594662732    6    5    2    2
 0.01488584825106227    6    5    3    1
 -0.07785155885495865    6    5    3    2
 0.01491554839336604    6    5    3    3
 -0.01063727778395591    6    5    4    1
 0.0002267283241985307    6    5    4    2
 0.1064449606832221    6    5    4    3
 -0.009793560110046423    6    5    4    4
 -0.004781451551296899    6    5    5    1
 0.003619581833228778    6    5    5    2
 0.006460397701674232    6    5    5    3
 0.07185135319068296    6    5    5    4
 -0.009845222554442735    6    5    5    5
 0.009791314064662177    6    5    6    1
 0.002385366829032699    6    5    6    2
 -0.00794106758997646    6    5    6    3
 0.006562226299242042    6    5    6    4
 0.1137548081182934    6    5    6    5
 0.3099395376624343    6    6    1    1
 -0.01513216640317807    6    6    2    1
 0.2934584957882322    6    6    2    2
 -0.007423933925275787    6    6    3    1
 -0.01396370018386537    6    6    3    2
 0.3147351712040962    6    6    3    3
 0.0002340017103380169    6    6    4    1
 0.0004428078420923047    6    6    4    2
 0.01417659899881638    6    6    4    3
 0.30153953644878    6    6    4    4
 0.01145370384345335    6    6    5    1
 0.003168371408645492    6    6    5    2
 -0.01801620241629169    6    6    5    3
 0.01379245803512132    6    6    5    4
 0.3068278348338442    6    6    5    5
 -0.001010666806473316    6    6    6    1
 0.003491850686792898    6    6    6    2
 -0.002771875641168767    6    6    6    3
 -0.01928900344738452    6    6    6    4
 0.01470015997862805    6    6    6    5
 0.3313524653888522    6    6    6    6
 0.001047190006244559    7    1    1    1
 0.002009000607581216    7    1    2    1
 0.004733170136594293    7    1    2    2
 0.005486317848567604    7    1    3    1
 -0.001404989323991514    7    1    3    2
 0.02061126624960397    7    1    3    3
 0.006304826146132132    7    1    4    1
 -0.02045888879376041    7    1    4    2
 -0.002458772886295652    7    1    4    3
 -0.01331137984873683    7    1    4    4
 0.01900472435060177    7    1    5    1
 0.001963059428629585    7    1    5    2
 -0.02208501919122927    7    1    5    3
 0.001783258514005088    7    1    5    4
 -0.008018207321180745    7    1    5    5
 -0.004696738685404472    7    1    6    1
 0.01531174752896685    7    1    6    2
 -0.001883365800575036    7    1    6    3
 -0.01762969816217866    7    1    6    4
 -0.002082827120860367    7    1    6    5
 0.0188687938296459    7    1    6    6
 0.04017039916190925    7    1    7    1
 0.002498842931101281    7    2    1    1
 0.004014503298696871    7    2    2    1
 0.007459498164722324    7    2    2    2
 -0.001645576677809977    7    2    3    1
 0.02701906758841717    7    2    3    2
 0.003214074062126824    7    2    3    3
 -0.02517139507114909    7    2    4    1
 -0.009206478873864787    7    2    4    2
 0.001687260446190062    7    2    4    3
 -0.00442389403334372    7    2    4    4
 0.001395579413419167    7    2    5    1
 -0.003817395380930778    7    2    5    2
 -0.004747646823056373    7    2    5    3
 0.02670560271863936    7    2    5    4
 -0.003467816988689806    7    2    5    5
 0.02454885270109123    7    2    6    1
 0.009293722079218966    7    2    6    2
 0.02685579840877823    7    2    6    3
 -0.004364499230671011    7    2    6    4
 -0.0002143495261870618    7    2    6    5
 0.003440278796324624    7    2    6    6
 0.007798422675407401    7    2    7    1
 0.05906966751921202    7    2    7    2
 0.01554924408207446    7    3    1    1
 -0.001851829315664471    7    3    2    1
 0.04014774632901902    7    3    2    2
 0.02764923572427708    7    3    3    1
 0.003443457912538185    7    3    3    2
 0.0008217528939154246    7    3    3    3
 -0.002695482197267126    7    3    4    1
 0.003119582762448734    7    3    4    2
 0.002456743187145789    7    3    4    3
 -0.000704690999413171    7    3    4    4
 -0.04115073601286677    7    3    5    1
 -0.008560247046576017    7    3    5    2
 -0.009386678742537267    7    3    5    3
 -0.002055556354457772    7    3    5    4
 -0.004076130762630008    7    3    5    5
 -0.005447789588181427    7    3    6    1
 0.0479429178764883    7    3    6    2
 -0.005552713954421919    7    3    6    3
 -0.01299128048448665    7    3    6    4
 0.002318461527585187    7    3    6    5
 0.003432795383824128    7    3    6    6
 0.01151677707795532    7    3    7    1
 0.007462823990688721    7    3    7    2
 0.05133583001684468    7    3    7    3
 0.01302822926468513    7    4    1    1
 -0.04902897192407678    7    4    2    1
 -0.01892437518818656    7    4    2    2
 -0.003039858657364621    7    4    3    1
 -0.001113496020331606    7    4    3    2
 0.003270940815247568    7    4    3    3
 -0.04206027590547266    7    4    4    1
 -0.01052098778315827    7    4    4    2
 0.003344977747278717    7    4    4    3
 -0.002913396411544409    7    4    4    4
 0.001647458975502796    7    4    5    1
 0.05985589975422203    7    4    5    2
 -0.0002054336463488465    7    4    5    3
 0.01282034057783686    7    4    5    4
 -0.002077844423563801    7    4    5    5
 -0.02343703177620797    7    4    6    1
 -0.008336749504131418    7    4    6    2
 -0.04179205600509704    7    4    6    3
 0.0004885362560483105    7    4    6    4
 0.001222813625692789    7    4    6    5
 0.003329681479427698    7    4    6    6
 0.001705550818637995    7    4    7    1
 -0.002554818752459144    7    4    7    2
 -0.007740164320894518    7    4    7    3
 0.06451338372247947    7    4    7    4
 0.0638379516575559    7    5    1    1
 0.003162804592104593    7    5    2    1
 0.007105883965613965    7    5    2    2
 -0.06929069857079734    7    5    3    1
 -0.01334408220107421    7    5    3    2
 0.0009654545942537653    7    5    3    3
 0.002085419503955882    7    5    4    1
 0.08000214324650196    7    5    4    2
 -0.001020329792744153    7    5    4    3
 0.02777539843940144    7    5    4    4
 -0.01167811138295706    7    5    5    1
 -0.009563597479866369    7    5    5    2
 -0.05703998687204716    7    5    5    3
 0.00769029783717174    7    5    5    4
 0.02887108476525435    7    5    5    5
 -0.0006207425634308832    7    5    6    1
 0.0009045817842484871    7    5    6    2
 0.001622207330560253    7    5    6    3
 -0.05832069742941388    7    5    6    4
 -0.0001507515980353185    7    5    6    5
 -0.001183186163768037    7    5    6    6
 -0.01797555064734845    7    5    7    1
 -0.008045852568130176    7    5    7    2
 0.001503042046274852    7    5    7    3
 -0.009419145673174648    7    5    7    4
 0.08679658664872589    7    5    7    5
 -0.02401940201505297    7    6    1    1
 0.08188484714522316    7    6    2    1
 0.03106548608238676    7    6    2    2
 -0.008986014417872218    7    6    3    1
 0.09823701113568339    7    6    3    2
 -0.01649443406046748    7    6    3    3
 -0.02957783355044693    7    6    4    1
 -0.01277707327896381    7    6    4    2
 -0.08121894509286623    7    6    4    3
 0.003292411190378509    7    6    4    4
 -0.00103627564258279    7    6    5    1
 -0.003746836142662748    7    6    5    2
 0.003291859005035764    7    6    5    3
 -0.07036981941571757    7    6    5    4
 0.003352276606860209    7    6    5    5
 0.02495790944512156    7    6    6    1
 0.003714556661253877    7    6    6    2
 -0.009037018416495814    7    6    6    3
 0.003578034785488998    7    6    6    4
 -0.08492595020829496    7    6    6    5
 -0.01572049757506258    7    6    6    6
 -0.001448433112174004    7    6    7    1
 0.0259583644272523    7    6    7    2
 0.003001308550073011    7    6    7    3
 -0.004278442715417538    7    6    7    4
 -0.01245436451652328    7    6    7    5
 0.1088567925615726    7    6    7    6
 0.3071740440587679    7    7    1    1
 0.03240558620482627    7    7    2    1
 0.345643627769225    7    7    2    2
 0.01497280884079158    7    7    3    1
 0.02477160370608656    7    7    3    2
 0.299036434757232    7    7    3    3
 0.004174470837609063    7    7    4    1
 0.00938626540998205    7    7    4    2
 -0.0261216904612068    7    7    4    3
 0.3125575268719871    7    7    4    4
 -0.03578120995258674    7    7    5    1
 -0.01761512927502314    7    7    5    2
 -0.01041533160705095    7    7    5    3
 -0.02289240860887695    7    7    5    4
 0.3180846486145998    7    7    5    5
 -0.001669457900648824    7    7    6    1
 0.04021486963269127    7    7    6    2
 0.003341049038756864    7    7    6    3
 -0.01236928645479997    7    7    6    4
 -0.02756940124361008    7    7    6    5
 0.3149010307144448    7    7    6    6
 0.004826444839429317    7    7    7    1
 0.006888206624446756    7    7    7    2
 0.0423703352826121    7    7    7    3
 -0.01780132703314294    7    7    7    4
 0.01048489106039196    7    7    7    5
 0.02729454630642189    7    7    7    6
 0.3747357101103165    7    7    7    7
 0.0001105929149239513    8    1    1    1
 -0.002005456688468157    8    1    2    1
 0.0007492049219341248    8    1    2    2
 0.0008887721662873757    8    1    3    1
 0.004479694537565205    8    1    3    2
 -0.007196213727045142    8    1    3    3
 -0.006202283887831296    8    1    4    1
 0.003258143173930357    8    1    4    2
 -0.01421810450703866    8    1    4    3
 0.00351821737503578    8    1    4    4
 -0.009266666561494819    8    1    5    1
 0.0172468589679873    8    1    5    2
 0.004872483614242884    8    1    5    3
 0.03219044437085868    8    1    5    4
 0.003245706388427231    8    1    5    5
 -0.01438601383610462    8    1    6    1
 -0.001834628208892073    8    1    6    2
 0.02902488033048852    8    1    6    3
 0.004673242827482453    8    1    6    4
 -0.01255759756623192    8    1    6    5
 -0.006386238054332213    8    1    6    6
 -0.01034659058711909    8    1    7    1
 0.03226029649430506    8    1    7    2
 -0.001719917512081213    8    1    7    3
 0.01626637338067925    8    1    7    4
 0.003155788349530892    8    1    7    5
 0.004124329443314595    8    1    7    6
 0.000750534012053234    8    1    7    7
 0.05103471343302327    8    1    8    1
 0.001768323976437336    8    2    1    1
 0.001684782969793098    8    2    2    1
 0.004781615350102192    8    2    2    2
 0.004461883773828075    8    2    3    1
 -0.0003439999595817942    8    2    3    2
 0.02090245252378481    8    2    3    3
 0.00458669835388581    8    2    4    1
 -0.01965424713716092    8    2    4    2
 -0.0023336774706023    8    2    4    3
 -0.009333566094921966    8    2    4    4
 0.01908885264276226    8    2    5    1
 0.002712965895198476    8    2    5    2
 -0.01938719003903222    8    2    5    3
 0.003473591943521543    8    2    5    4
 -0.0105760638316649    8    2    5    5
 -0.003372278988403157    8    2    6    1
 0.01220417736934471    8    2    6    2
 -0.0005606662378990516    8    2    6    3
 -0.02017920087084588    8    2    6    4
 -0.002356572976754442    8    2    6    5
 0.01966773234516375    8    2    6    6
 0.0377772150212875    8    2    7    1
 0.0102888476721319    8    2    7    2
 0.01297554052380779    8    2    7    3
 0.002158515814074598    8    2    7    4
 -0.01869043470324984    8    2    7    5
 -0.0005113044253478027    8    2    7    6
 0.004888237692175591    8    2    7    7
 -0.008052776714290687    8    2    8    1
 0.03853624191065941    8    2    8    2
 -0.001938996646510408    8    3    1    1
 0.01161429998706014    8    3    2    1
 -6.329617281763261e-06    8    3    2    2
 -0.0105916461667801    8    3    3    1
 0.0258277748190435    8    3    3    2
 -0.00131425845761899    8    3    3    3
 -0.01946442341193389    8    3    4    1
 -0.001546041534237875    8    3    4    2
 0.01287613044073056    8    3    4    3
 -0.001635091250006507    8    3    4    4
 0.007435258134368466    8    3    5    1
 -0.02474744448738461    8    3    5    2
 0.001784654004189897    8    3    5    3
 -0.008988279593212668    8    3    5    4
 -0.001110326357010792    8    3    5    5
 0.04435190975046675    8    3    6    1
 -0.002956817483873541    8    3    6    2
 0.002971873587101096    8    3    6    3
 0.00213029938069407    8    3    6    4
 0.0133258206887315    8    3    6    5
 -0.001096983328889878    8    3    6    6
 -0.003867880372154914    8    3    7    1
 0.02338888716512727    8    3    7    2
 -0.004741596982212633    8    3    7    3
 -0.02633469579673446    8    3    7    4
 -0.000964202001966309    8    3    7    5
 0.02663853766768461    8    3    7    6
 -0.001118512381526428    8    3    7    7
 -0.01452597557937177    8    3    8    1
 -0.00349410650841112    8    3    8    2
 0.0463861801971877    8    3    8    3
 -0.01168820555916886    8    4    1    1
 0.008158837806490429    8    4    2    1
 -0.0361031110931471    8    4    2    2
 -0.03067482828161328    8    4    3    1
 -0.002199420686820589    8    4    3    2
 0.01541279083016042    8    4    3    3
 0.00780326553776434    8    4    4    1
 -0.01277441739395321    8    4    4    2
 -0.004454380341679619    8    4    4    3
 -0.004120332439286035    8    4    4    4
 0.05826742334838345    8    4    5    1
 0.00491847687330913    8    4    5    2
 -0.009602052918931596    8    4    5    3
 0.002678800494109793    8    4    5    4
 -0.004470582195880344    8    4    5    5
 0.007842790899110469    8    4    6    1
 -0.04049345668481093    8    4    6    2
 0.00724191400925513    8    4    6    3
 -0.009176405028392785    8    4    6    4
 -0.004471290063453164    8    4    6    5
 0.01515408564023804    8    4    6    6
 0.01802859448391901    8    4    7    1
 0.001320035752456066    8    4    7    2
 -0.04196770536245917    8    4    7    3
 0.003511726445626639    8    4    7    4
 -0.01364093408765416    8    4    7    5
 -0.001633633267197489    8    4    7    6
 -0.03982566475406251    8    4    7    7
 -0.008222597186813917    8    4    8    1
 0.01884744493287874    8    4    8    2
 0.006983239878635795    8    4    8    3
 0.06227913640093354    8    4    8    4
 -0.02062043623062377    8    5    1    1
 0.04243589500086831    8    5    2    1
 0.00708241474756907    8    5    2    2
 0.009593205012205733    8    5    3    1
 -0.0311560908114375    8    5    3    2
 0.001458515692114978    8    5    3    3
 0.07316580166491328    8    5    4    1
 0.006409658582698189    8    5    4    2
 -0.01368694302577967    8    5    4    3
 0.00244944567764056    8    5    4    4
 0.008730472118108977    8    5    5    1
 -0.04168768875765349    8    5    5    2
 0.001378307845839398    8    5    5    3
 -0.001621240694352906    8    5    5    4
 0.001934836077405894    8    5    5    5
 -0.01824514514047739    8    5    6    1
 -0.00246337338866329    8    5    6    2
 0.04862370855552894    8    5    6    3
 0.001110012218060038    8    5    6    4
 -0.01386726138268399    8    5    6    5
 0.0009026416839369462    8    5    6    6
 0.005224757036738172    8    5    7    1
 -0.02458790368415877    8    5    7    2
 -0.002452928820593939    8    5    7    3
 -0.04430451437299934    8    5    7    4
 0.00461600282109265    8    5    7    5
 -0.03226238721035342    8    5    7    6
 0.005893992861837768    8    5    7    7
 -0.005792499756691402    8    5    8    1
 0.004047868883849049    8    5    8    2
 -0.01964478698454398    8    5    8    3
 0.008078022511149918    8    5    8    4
 0.08012413892138441    8    5    8    5
 -0.05823569401499881    8    6    1    1
 -0.01112093688713594    8    6    2    1
 0.01616900584202188    8    6    2    2
 0.0965060778301996    8    6    3    1
 -0.003841057153369708    8    6    3    2
 -0.01050882651374187    8    6    3    3
 0.01087632072350271    8    6    4    1
 -0.06933422197062553    8    6    4    2
 0.01320805533669984    8    6    4    3
 -0.02570239806850099    8    6    4    4
 -0.02970232634303742    8    6    5    1
 -0.003274133148796921    8    6    5    2
 0.0663713574596576    8    6    5    3
 -0.000926657838642115    8    6    5    4
 -0.02621166302836297    8    6    5    5
 -0.01077802259122513    8    6    6    1
 0.02833020812059328    8    6    6    2
 0.004811348116976625    8    6    6    3
 0.06811102030296061    8    6    6    4
 0.01311350105702455    8    6    6    5
 -0.01061408999514944    8    6    6    6
 0.004790152950262069    8    6    7    1
 -0.0007479930092418301    8    6    7    2
 0.02910994071576886    8    6    7    3
 -0.003266109554533493    8    6    7    4
 -0.07491959334558482    8    6    7    5
 -0.006428918350313038    8    6    7    6
 0.01857507870960491    8    6    7    7
 0.001162450495103285    8    6    8    1
 0.0039948300341728    8    6    8    2
 -0.01017689145268587    8    6    8    3
 -0.03385322280760291    8    6    8    4
 0.009359264746844335    8    6    8    5
 0.1078199552196722    8    6    8    6
 -0.04034617488021135    8    7    1    1
 0.1412043300923798    8    7    2    1
 0.04287172487880669    8    7    2    2
 -0.01309946760461769    8    7    3    1
 0.08033875329639989    8    7    3    2
 -0.01654882713040211    8    7    3    3
 0.04269232479335267    8    7    4    1
 0.003474946054001268    8    7    4    2
 -0.1086567703732097    8    7    4    3
 0.01051221524520049    8    7    4    4
 0.009779492562080817    8    7    5    1
 -0.05113055645280398    8    7    5    2
 -0.004076965881846433    8    7    5    3
 -0.08281284454048859    8    7    5    4
 0.01042374982346043    8    7    5    5
 0.0123084912770801    8    7    6    1
 -0.0004263451172865967    8    7    6    2
 0.04216495815917195    8    7    6    3
 -0.004153759100114399    8    7    6    4
 -0.1132672300464247    8    7    6    5
 -0.01631346926771825    8    7    6    6
 0.002011550923320241    8    7    7    1
 0.004029887026469059    8    7    7    2
 -0.001480538382421824    8    7    7    3
 -0.05558730408267799    8    7    7    4
 0.003230683604133196    8    7    7    5
 0.09136434535363223    8    7    7    6
 0.03793698702500348    8    7    7    7
 -0.002296068252941166    8    7    8    1
 0.001774571881597716    8    7    8    2
 0.01294294613572278    8    7    8    3
 0.008709510195183463    8    7    8    4
 0.04958777904915566    8    7    8    5
 -0.01180389889287901    8    7    8    6
 0.1634694542811247    8    7    8    7
 0.3806930945131488    8    8    1    1
 -0.03179402593650579    8    8    2    1
 0.3099102907488766    8    8    2    2
 -0.06217532297566901    8    8    3    1
 -0.02043715582101016    8    8    3    2
 0.3210042058719451    8    8    3    3
 -0.02067752827181434    8    8    4    1
 0.06873634379441812    8    8    4    2
 0.02133587512419947    8    8    4    3
 0.3323413706776545    8    8    4    4
 -0.01239505048781402    8    8    5    1
 0.009266582037167249    8    8    5    2
 -0.06723991098618834    8    8    5    3
 0.02421450837230248    8    8    5    4
 0.3383668654469684    8    8    5    5
 -0.001035830169317721    8    8    6    1
 0.01437547208432545    8    8    6    2
 -0.01880121249069079    8    8    6    3
 -0.07136233039362702    8    8    6    4
 0.02231830424792649    8    8    6    5
 0.3382095974214578    8    8    6    6
 0.001265035242437623    8    8    7    1
 0.002628787331540611    8    8    7    2
 0.01664352546238921    8    8    7    3
 0.01123324141763455    8    8    7    4
 0.07526096085977099    8    8    7    5
 -0.02216384895282416    8    8    7    6
 0.3408331303180048    8    8    7    7
 -9.650356022285894e-05    8    8    8    1
 0.002300898179738824    8    8    8    2
 -0.001677506718399055    8    8    8    3
 -0.01163138640103652    8    8    8    4
 -0.0203150742694897    8    8    8    5
 -0.07115734875811076    8    8    8    6
 -0.03680661362772434    8    8    8    7
 0.4276426399386463    8    8    8    8
 -2.505002737684703    1    1  0  0
 0.006941043846729084    2    1  0  0
 -2.354143456782892    2    2  0  0
 0.1340971205647352    3    1  0  0
 0.01165956773136787    3    2  0  0
 -2.21729085376292    3    3  0  0
 0.02407395138151413    4    1  0  0
 -0.1773459090560105    4    2  0  0
 0.002101793777334839    4    3  0  0
 -2.123259231088152    4    4  0  0
 0.06736490113862731    5    1  0  0
 0.01599684180502378    5    2  0  0
 0.2086032871880801    5    3  0  0
 -0.01811905769585602    5    4  0  0
 -1.964439007420183    5    5  0  0
 0.0104620299061254    6    1  0  0
 -0.105772316095386    6    2  0  0
 0.02655437493985623    6    3  0  0
 0.1715752946171562    6    4  0  0
 0.0006215790531693675    6    5  0  0
 -1.739135095863486    6    6  0  0
 -0.0355098612032714    7    1  0  0
 -0.01510607724556649    7    2  0  0
 -0.07495595319151127    7    3  0  0
 0.00771889273335431    7    4  0  0
 -0.1807483677237007    7    5  0  0
 0.01184466709610777    7    6  0  0
 -1.514149767204833    7    7  0  0
 0.004643390432148231    8    1  0  0
 -0.02040812009005838    8    2  0  0
 0.004565479794585254    8    3  0  0
 0.05589696918080556    8    4  0  0
 0.01716987289645504    8    5  0  0
 0.1481694445326353    8    6  0  0
 0.005734490446905151    8    7  0  0
 -1.457218830372389    8    8  0  0
 7.051383499349365  0  0  0  0
