 &FCI NORB=  10,NELEC=10,MS2=0,
  ORBSYM=1,1,1,1,1,1,1,1,1,1,
  ISYM=1,
 &END
 0.31954897550641    1    1    1    1
 -0.04350836354049469    2    1    1    1
 0.1257891437410316    2    1    2    1
 0.2541556662960951    2    2    1    1
 0.04659819810221379    2    2    2    1
 0.3095393014087147    2    2    2    2
 -0.04221958790426707    3    1    1    1
 -0.0144400784136531    3    1    2    1
 0.01784127963177062    3    1    2    2
 0.09276555951153485    3    1    3    1
 -0.02258543419646822    3    2    1    1
 0.06534447400976477    3    2    2    1
 0.03155705886260535    3    2    2    2
 -0.009134767362003415    3    2    3    1
 0.08034082009757543    3    2    3    2
 0.268838508106943    3    3    1    1
 -0.01807915595269155    3    3    2    1
 0.2393569059726041    3    3    2    2
 -0.01629890106820066    3    3    3    1
 -0.01797407926370627    3    3    3    2
 0.2842528446074578    3    3    3    3
 -0.02247049775592547    4    1    1    1
 0.03631753399075642    4    1    2    1
 0.007117649184979604    4    1    2    2
 0.01235112376065552    4    1    3    1
 -0.02987342839269624    4    1    3    2
 0.003044788616239001    4    1    3    3
 0.06479030585895221    4    1    4    1
 0.05356771803183232    4    2    1    1
 0.004933545895386541    4    2    2    1
 0.01420985229922567    4    2    2    2
 -0.05538129498773229    4    2    3    1
 -0.01532484828932073    4    2    3    2
 -0.004987604106113611    4    2    3    3
 0.00756759802583826    4    2    4    1
 0.08279563404310473    4    2    4    2
 0.0256970803876862    4    3    1    1
 -0.08238050123292487    4    3    2    1
 -0.03226164221347884    4    3    2    2
 0.01564171471299882    4    3    3    1
 -0.06584888149287119    4    3    3    2
 0.01852729724392757    4    3    3    3
 0.004228824173050313    4    3    4    1
 0.004006356476859573    4    3    4    2
 0.0970864581849539    4    3    4    3
 0.2487987353539146    4    4    1    1
 0.0163761011730965    4    4    2    1
 0.264323361434513    4    4    2    2
 0.001428995778438223    4    4    3    1
 0.01059237734898765    4    4    3    2
 0.24938084381786    4    4    3    3
 0.002201160705984971    4    4    4    1
 0.002209685940087676    4    4    4    2
 -0.01487383059780308    4    4    4    3
 0.2720833533815264    4    4    4    4
 0.0208884397836366    5    1    1    1
 -0.01260593285918799    5    1    2    1
 0.03525365011032453    5    1    2    2
 0.02545465870607068    5    1    3    1
 0.00182210308753172    5    1    3    2
 -0.02735590017679475    5    1    3    3
 -0.01319695512847984    5    1    4    1
 0.02823458268126193    5    1    4    2
 0.00148884406787343    5    1    4    3
 0.00586605683841884    5    1    4    4
 0.06265446040891835    5    1    5    1
 -0.0137726843942728    5    2    1    1
 0.04486695589950394    5    2    2    1
 0.02102051449708059    5    2    2    2
 0.003496438755247708    5    2    3    1
 -0.004263739612917744    5    2    3    2
 -0.002777104605306163    5    2    3    3
 0.04526701144957031    5    2    4    1
 0.01729361023245284    5    2    4    2
 0.01288080569454067    5    2    4    3
 0.002340810825890583    5    2    4    4
 -0.002184044631360726    5    2    5    1
 0.06041663276239746    5    2    5    2
 0.05209303378635087    5    3    1    1
 0.006280906907825744    5    3    2    1
 0.003350956013186763    5    3    2    2
 -0.0691251114498926    5    3    3    1
 -0.001385031016586727    5    3    3    2
 0.02130445076789764    5    3    3    3
 -0.005432483074753467    5    3    4    1
 0.05368991429630629    5    3    4    2
 -0.01126934101375467    5    3    4    3
 -0.01231389848100232    5    3    4    4
 -0.009048399267681001    5    3    5    1
 -0.002326934702645423    5    3    5    2
 0.08001408919709387    5    3    5    3
 -0.0321113792168098    5    4    1    1
 0.08791821015553385    5    4    2    1
 0.03742715423756596    5    4    2    2
 -0.006908349815526563    5    4    3    1
 0.06773741880948662    5    4    3    2
 -0.01991092999165074    5    4    3    3
 0.002596384164488539    5    4    4    1
 -0.006163767870325198    5    4    4    2
 -0.07910067596947414    5    4    4    3
 0.01599808683813865    5    4    4    4
 -0.001213810618161329    5    4    5    1
 0.01206486542565914    5    4    5    2
 0.0003306091481438433    5    4    5    3
 0.09496034294549778    5    4    5    4
 0.2784719061748246    5    5    1    1
 -0.004197075081074419    5    5    2    1
 0.256754380856305    5    5    2    2
 -0.02445585589191834    5    5    3    1
 -0.006092787513288893    5    5    3    2
 0.2635524629905763    5    5    3    3
 -0.001955125784599495    5    5    4    1
 0.02543808035611483    5    5    4    2
 0.002129519382817267    5    5    4    3
 0.2548270670859048    5    5    4    4
 0.002774703647642597    5    5    5    1
 -0.0002185280982306898    5    5    5    2
 0.02965826360303696    5    5    5    3
 -0.007106129404836099    5    5    5    4
 0.2800886550463625    5    5    5    5
 -0.000910847749825097    6    1    1    1
 -0.007714904591126338    6    1    2    1
 -0.0002702353704231572    6    1    2    2
 0.0149545838045999    6    1    3    1
 -0.02762335800862785    6    1    3    2
 -0.0009032664023750076    6    1    3    3
 0.02126694235384394    6    1    4    1
 0.001793896664198727    6    1    4    2
 -0.01700065859843217    6    1    4    3
 0.0007068939469915405    6    1    4    4
 0.007577505753497873    6    1    5    1
 -0.01803893742294835    6    1    5    2
 0.001804273366101104    6    1    5    3
 -0.00505891719890372    6    1    5    4
 0.001813344251455744    6    1    5    5
 0.05341368556074837    6    1    6    1
 -0.008296526486404675    6    2    1    1
 -0.001184756869203677    6    2    2    1
 -0.03820862849540109    6    2    2    2
 -0.03374964254835066    6    2    3    1
 -0.006768852308187074    6    2    3    2
 0.004656058273720579    6    2    3    3
 0.001721665603094141    6    2    4    1
 0.001415954488236051    6    2    4    2
 -0.002563109810376005    6    2    4    3
 0.008425099999530151    6    2    4    4
 -0.03235224059160802    6    2    5    1
 -0.00891687857079161    6    2    5    2
 -0.002597955047941405    6    2    5    3
 -0.002282558646353472    6    2    5    4
 -0.002864789897324167    6    2    5    5
 -0.001588580976873539    6    2    6    1
 0.05023317598675941    6    2    6    2
 0.02325387576035488    6    3    1    1
 -0.04575952369985378    6    3    2    1
 -0.01072911812896796    6    3    2    2
 -0.003315152498490456    6    3    3    1
 0.004718163384547696    6    3    3    2
 0.003126332305517066    6    3    3    3
 -0.04417453838797714    6    3    4    1
 -0.005585679039933709    6    3    4    2
 0.009916744592235842    6    3    4    3
 -0.003013181625752195    6    3    4    4
 0.01047517489574077    6    3    5    1
 -0.03515749825499999    6    3    5    2
 0.004462624843724756    6    3    5    3
 0.004369675004947049    6    3    5    4
 0.0001826549740820016    6    3    5    5
 -0.007247180573666303    6    3    6    1
 -0.002184749388509324    6    3    6    2
 0.06074188588394368    6    3    6    3
 0.0505245273140409    6    4    1    1
 0.003173031927502149    6    4    2    1
 0.008698575832982048    6    4    2    2
 -0.0563920971770623    6    4    3    1
 -0.006313284329673647    6    4    3    2
 0.0190492652800161    6    4    3    3
 -0.001331407044973032    6    4    4    1
 0.05118173610352202    6    4    4    2
 -0.003330036741174681    6    4    4    3
 0.004161740752056437    6    4    4    4
 -0.001431875675105632    6    4    5    1
 0.002074305671394358    6    4    5    2
 0.05366972668790204    6    4    5    3
 -0.004705344623498513    6    4    5    4
 0.01410507038756435    6    4    5    5
 -0.0008125284010524666    6    4    6    1
 0.008346251960583405    6    4    6    2
 0.0004595499744818183    6    4    6    3
 0.06415278547861632    6    4    6    4
 0.02160671395211561    6    5    1    1
 -0.07268514384773854    6    5    2    1
 -0.0277673470878645    6    5    2    2
 0.01492767623592243    6    5    3    1
 -0.05201094065364373    6    5    3    2
 0.01205703757423759    6    5    3    3
 -0.004119080107075848    6    5    4    1
 9.260914163016615e-05    6    5    4    2
 0.06621693121099675    6    5    4    3
 -0.01129236253238278    6    5    4    4
 0.005617835233728868    6    5    5    1
 -0.007045302460769711    6    5    5    2
 -0.00902728989604297    6    5    5    3
 -0.06196712791646677    6    5    5    4
 0.001688057672065441    6    5    5    5
 0.0004258161648649865    6    5    6    1
 -0.001119152102015741    6    5    6    2
 0.01441610768232379    6    5    6    3
 -0.004527042287199136    6    5    6    4
 0.07735323448507939    6    5    6    5
 0.2808730101018594    6    6    1    1
 -0.004388877728140926    6    6    2    1
 0.2592957619515442    6    6    2    2
 -0.02405770858154696    6    6    3    1
 -0.005981413855798264    6    6    3    2
 0.2653870155542905    6    6    3    3
 -0.002211672900614322    6    6    4    1
 0.02529478143174346    6    6    4    2
 0.002483174216333889    6    6    4    3
 0.2561183506273412    6    6    4    4
 0.003030109444318766    6    6    5    1
 -0.0001481407691085548    6    6    5    2
 0.02913857093941795    6    6    5    3
 -0.006880124858171099    6    6    5    4
 0.2751210539093935    6    6    5    5
 0.001133600530780917    6    6    6    1
 -0.003102228908308785    6    6    6    2
 0.001489013748376891    6    6    6    3
 0.02031521905375217    6    6    6    4
 0.001929195110693434    6    6    6    5
 0.2839355807141239    6    6    6    6
 0.001405390689387295    7    1    1    1
 -0.0009707608234478034    7    1    2    1
 -0.0075359416056918    7    1    2    2
 -0.01257058982006177    7    1    3    1
 0.002610527479695998    7    1    3    2
 -0.0190719138820034    7    1    3    3
 -0.007147357209591169    7    1    4    1
 0.02118947314810104    7    1    4    2
 0.001717486880177425    7    1    4    3
 0.013397546368974    7    1    4    4
 0.01482669676241565    7    1    5    1
 0.0009541101021832435    7    1    5    2
 -0.01485271385385128    7    1    5    3
 -5.592970942209125e-05    7    1    5    4
 -0.00230390065461479    7    1    5    5
 -0.009541132861248948    7    1    6    1
 0.02371543164947967    7    1    6    2
 -0.0002237922048548123    7    1    6    3
 0.002884035650430038    7    1    6    4
 0.0005990307786108219    7    1    6    5
 -0.002956336878800308    7    1    6    6
 0.03801322855675826    7    1    7    1
 -0.0003442793520951669    7    2    1    1
 -0.008778719608987077    7    2    2    1
 -0.009969543897839415    7    2    2    2
 0.002675342961621045    7    2    3    1
 -0.02898930449797953    7    2    3    2
 -0.001225362096153191    7    2    3    3
 0.02219631642255615    7    2    4    1
 0.009829631208848612    7    2    4    2
 -0.0003460511572745693    7    2    4    3
 0.004294481322235204    7    2    4    4
 0.0008564066230127762    7    2    5    1
 -0.001981634863638998    7    2    5    2
 -0.001513642368566902    7    2    5    3
 0.009060771421718114    7    2    5    4
 -0.0001756910414771538    7    2    5    5
 0.03197184795948017    7    2    6    1
 0.01257717765014037    7    2    6    2
 0.0135391129171806    7    2    6    3
 0.0003593862879657544    7    2    6    4
 0.005654464335180296    7    2    6    5
 -0.000661549376847189    7    2    6    6
 0.003467715843029749    7    2    7    1
 0.04814161892374348    7    2    7    2
 -0.01949685417483542    7    3    1    1
 0.004164552788139272    7    3    2    1
 -0.03840078490021925    7    3    2    2
 -0.02559825165186046    7    3    3    1
 -0.001867009447495728    7    3    3    2
 0.002097809846391583    7    3    3    3
 0.003466779877472209    7    3    4    1
 -0.007886417189696782    7    3    4    2
 -0.002375077464081923    7    3    4    3
 -0.007264449900734517    7    3    4    4
 -0.03543276196660746    7    3    5    1
 -0.003683018594090722    7    3    5    2
 0.004805503472562004    7    3    5    3
 -0.001592387835312723    7    3    5    4
 0.006152427247825352    7    3    5    5
 -0.004126656525363931    7    3    6    1
 0.03225553396189111    7    3    6    2
 -0.007275178155028034    7    3    6    3
 -0.01556299980102807    7    3    6    4
 -0.001918019038688264    7    3    6    5
 -0.0002863231701354769    7    3    6    6
 0.006276881411053289    7    3    7    1
 0.003386365729187252    7    3    7    2
 0.04795466582696794    7    3    7    3
 -0.01130546739644987    7    4    1    1
 0.03745584322039509    7    4    2    1
 0.01664277279670936    7    4    2    2
 0.003030780614209535    7    4    3    1
 -0.008032167599499325    7    4    3    2
 -0.00135830448012372    7    4    3    3
 0.0410477774859306    7    4    4    1
 0.01402219050503135    7    4    4    2
 0.0009635203855902151    7    4    4    3
 0.004267934340622401    7    4    4    4
 -0.002292263347431138    7    4    5    1
 0.04053095489124151    7    4    5    2
 -0.001279890276267825    7    4    5    3
 0.001459495173160992    7    4    5    4
 -0.0001542416092778387    7    4    5    5
 0.000603330536687236    7    4    6    1
 -0.003518944571268891    7    4    6    2
 -0.04252595569841984    7    4    6    3
 0.006597676352855226    7    4    6    4
 0.01812577911439529    7    4    6    5
 0.0001288323112247778    7    4    6    6
 0.000584080321156083    7    4    7    1
 -0.003677580327927115    7    4    7    2
 -0.003640356636358667    7    4    7    3
 0.06496419325378437    7    4    7    4
 0.05235577512068684    7    5    1    1
 0.002798929861387043    7    5    2    1
 0.009599232051997275    7    5    2    2
 -0.05752294318211744    7    5    3    1
 -0.006088572738615771    7    5    3    2
 0.02033788702199283    7    5    3    3
 -0.002027925262518345    7    5    4    1
 0.0523109611282089    7    5    4    2
 -0.003309727278834759    7    5    4    3
 0.005925127403542852    7    5    4    4
 -0.001026912380720896    7    5    5    1
 0.001936012090999873    7    5    5    2
 0.0550632931634721    7    5    5    3
 -0.004446155891536608    7    5    5    4
 0.02139006583038101    7    5    5    5
 -0.0009373028336541489    7    5    6    1
 0.008253544671164645    7    5    6    2
 0.0007419626786689463    7    5    6    3
 0.06020389651870162    7    5    6    4
 -0.00464769533186138    7    5    6    5
 0.0171082764148777    7    5    6    6
 0.003552443499306089    7    5    7    1
 0.0009247775490113132    7    5    7    2
 -0.01095388887170807    7    5    7    3
 0.00581936666686319    7    5    7    4
 0.06471434131851583    7    5    7    5
 -0.03272727559590751    7    6    1    1
 0.0904735720797461    7    6    2    1
 0.03804347891908361    7    6    2    2
 -0.00798839549712266    7    6    3    1
 0.0693773815373329    7    6    3    2
 -0.02028230048158207    7    6    3    3
 0.002607043878151694    7    6    4    1
 -0.005904665853151339    7    6    4    2
 -0.0805982943105002    7    6    4    3
 0.01544085289371032    7    6    4    4
 -0.001553695502230195    7    6    5    1
 0.01206276845331787    7    6    5    2
 0.001011313989781015    7    6    5    3
 0.09068739988568314    7    6    5    4
 -0.006999623852732241    7    6    5    5
 -0.005652897920022463    7    6    6    1
 -0.002576430862312672    7    6    6    2
 -0.002407350726148447    7    6    6    3
 -0.003711620640662123    7    6    6    4
 -0.06363526598361276    7    6    6    5
 -0.006961916968934197    7    6    6    6
 0.0001489010950013609    7    6    7    1
 0.002829724158784155    7    6    7    2
 -0.001272175998809229    7    6    7    3
 0.002970982300693082    7    6    7    4
 -0.004017687076260281    7    6    7    5
 0.0972022732857149    7    6    7    6
 0.2572154350446368    7    7    1    1
 0.01414122274368354    7    7    2    1
 0.2711279095408515    7    7    2    2
 0.001363540401348891    7    7    3    1
 0.00952609653376354    7    7    3    2
 0.256210856859424    7    7    3    3
 0.001493453441441884    7    7    4    1
 0.003702508493557735    7    7    4    2
 -0.01247608750099614    7    7    4    3
 0.2724801109964788    7    7    4    4
 0.007058927127387784    7    7    5    1
 0.002930443622114148    7    7    5    2
 -0.005710451370020604    7    7    5    3
 0.01336914882021014    7    7    5    4
 0.2613022337482809    7    7    5    5
 0.0005754456203922675    7    7    6    1
 0.00178056801435318    7    7    6    2
 -0.002267555738062635    7    7    6    3
 0.006803496011478946    7    7    6    4
 -0.009912454451084794    7    7    6    5
 0.2652605318690595    7    7    6    6
 0.007903590637120803    7    7    7    1
 0.00190938799818607    7    7    7    2
 -0.01037921707371564    7    7    7    3
 0.004175533583229623    7    7    7    4
 0.007261750497656624    7    7    7    5
 0.01383208068559506    7    7    7    6
 0.284654190119646    7    7    7    7
 0.0006921823416627264    8    1    1    1
 -0.0002797777391367472    8    1    2    1
 -0.0008595567309926206    8    1    2    2
 -0.0005281414614655396    8    1    3    1
 -0.004826625737175964    8    1    3    2
 0.008638339920808091    8    1    3    3
 0.007602003385406187    8    1    4    1
 -0.0018415605659297    8    1    4    2
 0.01669425083563333    8    1    4    3
 -0.00131893658485204    8    1    4    4
 -0.009621737127793779    8    1    5    1
 0.01792476070842126    8    1    5    2
 0.00120535941297071    8    1    5    3
 0.01491084286551711    8    1    5    4
 -0.002969727400510429    8    1    5    5
 -0.01436007681095175    8    1    6    1
 -0.001122331612452241    8    1    6    2
 0.02098991580917688    8    1    6    3
 0.001397983674591811    8    1    6    4
 0.005239774560373552    8    1    6    5
 -0.00118394941426407    8    1    6    6
 -0.00636970029425337    8    1    7    1
 0.01696760622190769    8    1    7    2
 -0.002667139163047162    8    1    7    3
 -0.003021761820098201    8    1    7    4
 0.0007088640731324977    8    1    7    5
 0.009526622537772474    8    1    7    6
 -0.0007396669087572796    8    1    7    7
 0.03659843767184732    8    1    8    1
 -0.0007182018861972614    8    2    1    1
 -0.0007465564385827208    8    2    2    1
 -0.003407573596258206    8    2    2    2
 -0.004436655788077043    8    2    3    1
 -0.0009512685727024783    8    2    3    2
 -0.02260014146078072    8    2    3    3
 -0.00203984271096496    8    2    4    1
 0.0224444472108351    8    2    4    2
 0.001872766765269263    8    2    4    3
 0.001096330738644962    8    2    4    4
 0.02101315676575483    8    2    5    1
 0.004475156825836294    8    2    5    2
 -0.004614011277561673    8    2    5    3
 0.00244071151011385    8    2    5    4
 0.007274503159924027    8    2    5    5
 -0.001906424152683197    8    2    6    1
 0.004831928603746864    8    2    6    2
 0.001426371211656975    8    2    6    3
 -0.01302978652102372    8    2    6    4
 0.001695749412251378    8    2    6    5
 0.002016529562800581    8    2    6    6
 0.02320652331801069    8    2    7    1
 0.007907707431465258    8    2    7    2
 0.01316688526889924    8    2    7    3
 -0.001253227108544714    8    2    7    4
 -0.008714194035090172    8    2    7    5
 0.001627385905859531    8    2    7    6
 -0.001386235304354205    8    2    7    7
 -0.003714286526127061    8    2    8    1
 0.03295172532091126    8    2    8    2
 0.0002746626188565892    8    3    1    1
 -0.005965020522176729    8    3    2    1
 -0.0002646780860560584    8    3    2    2
 0.01125763288022878    8    3    3    1
 -0.02571085092207454    8    3    3    2
 0.003120530377893158    8    3    3    3
 0.02181420506650321    8    3    4    1
 0.002360623258934168    8    3    4    2
 -0.004419951252337474    8    3    4    3
 0.002266488250176634    8    3    4    4
 0.002530935585823913    8    3    5    1
 -0.005334377836955881    8    3    5    2
 -0.0005218972141433494    8    3    5    3
 -0.004508003399305475    8    3    5    4
 -0.0002618018862172937    8    3    5    5
 0.03589459769371729    8    3    6    1
 0.0007132904845321182    8    3    6    2
 -0.004896696787150973    8    3    6    3
 0.002938207930285031    8    3    6    4
 -0.02382497560504109    8    3    6    5
 -0.0003454294240888426    8    3    6    6
 -0.006388494168955848    8    3    7    1
 0.0275554273880041    8    3    7    2
 -0.00614237078432184    8    3    7    3
 -0.02377018405477988    8    3    7    4
 0.00268852211517892    8    3    7    5
 -0.005360026684961083    8    3    7    6
 0.002084205748362898    8    3    7    7
 -0.002145897530067809    8    3    8    1
 -0.003911034371568427    8    3    8    2
 0.05615175396841705    8    3    8    3
 0.0200369569428798    8    4    1    1
 -0.003245232471315671    8    4    2    1
 0.04001668505216156    8    4    2    2
 0.02587503302600198    8    4    3    1
 0.002321837578171752    8    4    3    2
 -0.001153572558443807    8    4    3    3
 -0.003068401930338019    8    4    4    1
 0.008124261065257663    8    4    4    2
 0.002259900198811363    8    4    4    3
 0.008953945391062548    8    4    4    4
 0.03587783750774332    8    4    5    1
 0.004605157592849429    8    4    5    2
 -0.004613302960591985    8    4    5    3
 0.001772227752753908    8    4    5    4
 -8.521099845843504e-05    8    4    5    5
 0.003935741108846477    8    4    6    1
 -0.03311617272836569    8    4    6    2
 0.005962182319809732    8    4    6    3
 0.01129014558697596    8    4    6    4
 0.002236133183780815    8    4    6    5
 -0.003132321665785376    8    4    6    6
 -0.006081806218376677    8    4    7    1
 -0.003749258389210845    8    4    7    2
 -0.04442092020231953    8    4    7    3
 0.00479313941965516    8    4    7    4
 0.01415682618073094    8    4    7    5
 0.001466418677909428    8    4    7    6
 0.01044686166980849    8    4    7    7
 0.001598013281307755    8    4    8    1
 -0.009710460739485956    8    4    8    2
 0.005093688866824683    8    4    8    3
 0.04775943516827414    8    4    8    4
 -0.02319910732377367    8    5    1    1
 0.04796952826954421    8    5    2    1
 0.01197855734646813    8    5    2    2
 0.002595115349870884    8    5    3    1
 -0.003965125490524047    8    5    3    2
 -0.002811128842453285    8    5    3    3
 0.0455934674607568    8    5    4    1
 0.006454006765781403    8    5    4    2
 -0.01067818554444793    8    5    4    3
 0.003321744795977813    8    5    4    4
 -0.01106094674625192    8    5    5    1
 0.03778828894943103    8    5    5    2
 -0.003260309125218097    8    5    5    3
 0.002092920340776695    8    5    5    4
 -0.0008211290714731719    8    5    5    5
 0.006487670117788683    8    5    6    1
 0.001837410546942996    8    5    6    2
 -0.05695917671829605    8    5    6    3
 0.000618045139999513    8    5    6    4
 -0.01587870683836502    8    5    6    5
 -0.000587375348844474    8    5    6    6
 -0.0006811361663952271    8    5    7    1
 -0.009343093426729097    8    5    7    2
 0.006332000597740224    8    5    7    3
 0.04323109804680988    8    5    7    4
 -0.0002379333233344004    8    5    7    5
 7.108525228889017e-05    8    5    7    6
 0.002635165596735601    8    5    7    7
 -0.01590650635069625    8    5    8    1
 -0.001762586442600928    8    5    8    2
 0.005170205482651557    8    5    8    3
 -0.005989419604132366    8    5    8    4
 0.06151601073947139    8    5    8    5
 -0.05508657411180529    8    6    1    1
 -0.005285562781222533    8    6    2    1
 -0.004161046380948882    8    6    2    2
 0.07108470858329369    8    6    3    1
 0.002074834814414307    8    6    3    2
 -0.02228589744742653    8    6    3    3
 0.006028578451977129    8    6    4    1
 -0.05635619716667988    8    6    4    2
 0.009564301811212999    8    6    4    3
 0.006168365097622155    8    6    4    4
 0.007986132331507492    8    6    5    1
 0.001918449778097332    8    6    5    2
 -0.07643777697562927    8    6    5    3
 0.0009299674238980369    8    6    5    4
 -0.03153309228493133    8    6    5    5
 0.0001350259073131547    8    6    6    1
 -0.002555332455435392    8    6    6    2
 -0.004163213482178308    8    6    6    3
 -0.0554907427217087    8    6    6    4
 0.008207241737318943    8    6    6    5
 -0.0319497225326535    8    6    6    6
 0.00898242544627045    8    6    7    1
 0.001042744340477178    8    6    7    2
 -0.005223538110897933    8    6    7    3
 0.000937441886784732    8    6    7    4
 -0.05650139891968013    8    6    7    5
 -0.0001099754386798903    8    6    7    6
 0.007995030771159213    8    6    7    7
 -0.0007708934240322788    8    6    8    1
 0.002681762592119691    8    6    8    2
 0.001280781664229082    8    6    8    3
 0.005250059694568653    8    6    8    4
 0.00368571397113002    8    6    8    5
 0.08245636134488792    8    6    8    6
 -0.02730781457817614    8    7    1    1
 0.08657758293669029    8    7    2    1
 0.03442329002451139    8    7    2    2
 -0.01561497853623439    8    7    3    1
 0.06949036123005112    8    7    3    2
 -0.01869860587682662    8    7    3    3
 -0.00382975154182657    8    7    4    1
 -0.004510145086034965    8    7    4    2
 -0.09555450796331751    8    7    4    3
 0.01543795840725166    8    7    4    4
 -0.002297282768860233    8    7    5    1
 -0.00746813418560092    8    7    5    2
 0.009927737171925468    8    7    5    3
 0.08195263796425051    8    7    5    4
 -0.002523399015920925    8    7    5    5
 0.01096848539966379    8    7    6    1
 0.001746445853951188    8    7    6    2
 -0.01120417320085921    8    7    6    3
 0.002594165709127064    8    7    6    4
 -0.06883968740594995    8    7    6    5
 -0.002688835704568675    8    7    6    6
 -0.001140435804457331    8    7    7    1
 -0.002709219467037842    8    7    7    2
 0.002313696737033775    8    7    7    3
 0.0004228101167419956    8    7    7    4
 0.00263216420579522    8    7    7    5
 0.08516766393786832    8    7    7    6
 0.01372925400692445    8    7    7    7
 -0.01507283370588687    8    7    8    1
 -0.001770783467464302    8    7    8    2
 0.002064459809579762    8    7    8    3
 -0.002212593765028511    8    7    8    4
 0.01218129939516846    8    7    8    5
 -0.009220764920518236    8    7    8    6
 0.1034069202447719    8    7    8    7
 0.2803242465054977    8    8    1    1
 -0.0165322377094932    8    8    2    1
 0.2532809120234393    8    8    2    2
 -0.01598321694373292    8    8    3    1
 -0.01529966384944402    8    8    3    2
 0.2903103654113326    8    8    3    3
 0.0009683289248115711    8    8    4    1
 -0.0004275467923293347    8    8    4    2
 0.01551206240468519    8    8    4    3
 0.2604380861011495    8    8    4    4
 -0.02077805431009423    8    8    5    1
 -0.003320447975570162    8    8    5    2
 0.02241685733335089    8    8    5    3
 -0.01768209286454374    8    8    5    4
 0.2753325820894453    8    8    5    5
 -0.0002432951360633344    8    8    6    1
 0.001615076338217803    8    8    6    2
 0.003964176472560479    8    8    6    3
 0.02046467920303932    8    8    6    4
 0.01052237681729388    8    8    6    5
 0.2789395142273207    8    8    6    6
 -0.01797127018205033    8    8    7    1
 -0.001724821033639412    8    8    7    2
 -0.001184476786602257    8    8    7    3
 -0.001592754839479803    8    8    7    4
 0.02184138814916579    8    8    7    5
 -0.0181524795987538    8    8    7    6
 0.271049567377727    8    8    7    7
 0.007475111065222661    8    8    8    1
 -0.02149797976103713    8    8    8    2
 0.003004977970255943    8    8    8    3
 0.001933912574492944    8    8    8    4
 -0.003773055809140172    8    8    8    5
 -0.02400526439487938    8    8    8    6
 -0.01669415514614199    8    8    8    7
 0.3090822129190663    8    8    8    8
 -0.001920091705249782    9    1    1    1
 0.0005630066294801688    9    1    2    1
 0.0006206414614010843    9    1    2    2
 0.002391841225531129    9    1    3    1
 -0.0004479933677723042    9    1    3    2
 -0.004735355770070116    9    1    3    3
 0.001009331008521674    9    1    4    1
 0.002654730303946881    9    1    4    2
 -0.002510555358969489    9    1    4    3
 -0.01448439798802122    9    1    4    4
 0.004544960026314381    9    1    5    1
 6.682158165757077e-06    9    1    5    2
 0.01412424778703968    9    1    5    3
 -0.0006182316196210421    9    1    5    4
 0.01220698288887525    9    1    5    5
 0.006247314231350512    9    1    6    1
 -0.01708340422303066    9    1    6    2
 -0.001777531288600186    9    1    6    3
 -0.01709989330193484    9    1    6    4
 0.001282983982153262    9    1    6    5
 0.008363781841221529    9    1    6    6
 -0.01400396234727268    9    1    7    1
 -0.001739841449967428    9    1    7    2
 0.01332075692674431    9    1    7    3
 -0.00133135781308141    9    1    7    4
 -0.01416087876100062    9    1    7    5
 -0.0004071414991675374    9    1    7    6
 -0.01298007300609628    9    1    7    7
 -0.004165395343629492    9    1    8    1
 0.01256207018857259    9    1    8    2
 -0.002511808641793807    9    1    8    3
 -0.01054708878618474    9    1    8    4
 0.001318409349776048    9    1    8    5
 -0.0119998350043501    9    1    8    6
 0.002112190861019026    9    1    8    7
 -0.00434765729627292    9    1    8    8
 0.03222669024991    9    1    9    1
 -6.60119890298211e-05    9    2    1    1
 0.0009535798969713601    9    2    2    1
 0.0009506863159732834    9    2    2    2
 -0.0001654514654326216    9    2    3    1
 -0.0005629388463820292    9    2    3    2
 -0.0006390270765067196    9    2    3    3
 0.003185817697829359    9    2    4    1
 0.004546766575637408    9    2    4    2
 0.01792862618499122    9    2    4    3
 -0.005960142539203717    9    2    4    4