 &FCI NORB=  28,NELEC=14,MS2=0,
  ORBSYM=1,1,1,1,1,1,1,1,1,1,1,1,1,1,1,1,1,1,1,1,1,1,1,1,1,1,1,1,
  ISYM=1,
 &END
 2.301522012953344    1    1    1    1
 -3.856323067141103e-11    2    1    1    1
 1.821176987877211    2    1    2    1
 2.302446225709729    2    2    1    1
 3.853682106123074e-11    2    2    2    1
 2.303371226860814    2    2    2    2
 -0.1985303368227101    3    1    1    1
 2.215016542091373e-12    3    1    2    1
 -0.1986889931337498    3    1    2    2
 0.03621779248567521    3    1    3    1
 2.323008913739807e-12    3    2    1    1
 -0.2088930677024582    3    2    2    1
 -6.522231446359511e-12    3    2    2    2
 0.0358302611724352    3    2    3    2
 0.8372568324900267    3    3    1    1
 0.8371821645324126    3    3    2    2
 0.00584088989161959    3    3    3    1
 0.8175266810381068    3    3    3    3
 -5.719778247267011e-12    4    1    1    1
 0.1773656077911558    4    1    2    1
 1.787767560174465e-12    4    1    2    2
 -0.02557298024632342    4    1    3    2
 0.02874133400913855    4    1    4    1
 0.1851653956372963    4    2    1    1
 1.872391111840429e-12    4    2    2    1
 0.1852874547569936    4    2    2    2
 -0.02523969255267306    4    2    3    1
 0.02173835783817869    4    2    3    3
 0.02901751906282565    4    2    4    2
 3.552188974769808e-12    4    3    1    1
 -0.1684546712390619    4    3    2    1
 -3.579339808493013e-12    4    3    2    2
 0.008827090556683907    4    3    3    2
 -0.003655694128389065    4    3    4    1
 0.05433332838316549    4    3    4    3
 0.6654179748711023    4    4    1    1
 0.665486467911341    4    4    2    2
 -0.01311079595016116    4    4    3    1
 0.519656303691767    4    4    3    3
 0.003096119225918894    4    4    4    2
 0.5358940673059158    4    4    4    4
 -0.07252961220775213    5    1    1    1
 -0.07255560676037584    5    1    2    2
 0.0025221145444173    5    1    3    1
 -0.03106633742212131    5    1    3    3
 -0.01591351771082469    5    1    4    2
 0.006247509512847616    5    1    4    4
 0.01771790593726722    5    1    5    1
 -0.05581144049931963    5    2    2    1
 -1.970672266591478e-12    5    2    2    2
 0.00324638468076463    5    2    3    2
 -0.01536584183757918    5    2    4    1
 -0.002068016544487871    5    2    4    3
 0.01653450121355133    5    2    5    2
 -0.0971794801970457    5    3    1    1
 -0.09710685110818146    5    3    2    2
 -0.00903411023288438    5    3    3    1
 -0.1428881763549718    5    3    3    3
 -0.007694276240822849    5    3    4    2
 -0.005460117116537583    5    3    4    4
 0.0163463027154892    5    3    5    1
 0.06668409980534863    5    3    5    3
 5.346446376030128e-12    5    4    1    1
 -0.252329249193429    5    4    2    1
 -5.335973154215478e-12    5    4    2    2
 0.01550005676248303    5    4    3    2
 0.003968706165083448    5    4    4    1
 0.09168161724928768    5    4    4    3
 -0.01655984837725032    5    4    5    2
 0.2084245912402659    5    4    5    4
 0.6940806316191631    5    5    1    1
 0.6941086399672612    5    5    2    2
 -0.008286041886223627    5    5    3    1
 0.5673269338687215    5    5    3    3
 0.004050529274337671    5    5    4    2
 0.540163459607516    5    5    4    4
 0.001377309810771156    5    5    5    1
 -0.03290364676304732    5    5    5    3
 0.5624411426676491    5    5    5    5
 0.01243622642223657    6    1    6    1
 0.01184598994712502    6    2    6    2
 0.01703146117817102    6    3    6    1
 0.1004521709060056    6    3    6    3
 -0.01061802635396425    6    4    6    2
 0.04162691668753768    6    4    6    4
 0.004031017795676751    6    5    6    1
 0.01102004022807554    6    5    6    3
 0.02354750516450752    6    5    6    5
 0.6842900264413844    6    6    1    1
 0.6842856589721141    6    6    2    2
 2.557120735998926e-05    6    6    3    1
 0.6320081441146036    6    6    3    3
 0.00855877504900328    6    6    4    2
 0.4923125698417603    6    6    4    4
 -0.01059666230268805    6    6    5    1
 -0.06192461454525153    6    6    5    3
 0.5037581787943934    6    6    5    5
 0.5748528335115566    6    6    6    6
 0.01243622642223657    7    1    7    1
 0.01184598994712502    7    2    7    2
 0.01703146117817102    7    3    7    1
 0.1004521709060055    7    3    7    3
 -0.01061802635396424    7    4    7    2
 0.04162691668753771    7    4    7    4
 0.00403101779567675    7    5    7    1
 0.01102004022807554    7    5    7    3
 0.0235475051645075    7    5    7    5
 0.02317858782480029    7    6    7    6
 0.6842900264413841    7    7    1    1
 0.6842856589721139    7    7    2    2
 2.557120736000578e-05    7    7    3    1
 0.6320081441146035    7    7    3    3
 0.00855877504900325    7    7    4    2
 0.4923125698417604    7    7    4    4
 -0.01059666230268804    7    7    5    1
 -0.06192461454525147    7    7    5    3
 0.5037581787943934    7    7    5    5
 0.5284956578619557    7    7    6    6
 0.5748528335115564    7    7    7    7
 0.003228428291478282    8    1    6    2
 -0.002934187842205547    8    1    6    4
 0.01121055320758518    8    1    7    2
 -0.01018881819767256    8    1    7    4
 0.01151040426611823    8    1    8    1
 0.00335962569596353    8    2    6    1
 0.004327053394554589    8    2    6    3
 0.001227867928544954    8    2    6    5
 0.01166612952859601    8    2    7    1
 0.01502547305751195    8    2    7    3
 0.004263708994613495    8    2    7    5
 0.01188718588871372    8    2    8    2
 0.002755867296910254    8    3    6    2
 -0.009310713227183917    8    3    6    4
 0.009569609164498354    8    3    7    2
 -0.03233097860944537    8    3    7    4
 0.009658482625283755    8    3    8    1
 0.03158116407008404    8    3    8    3
 -0.003835447476944174    8    4    6    1
 -0.01763228342074866    8    4    6    3
 -0.009089231530481206    8    4    6    5
 -0.013318396486822    8    4    7    1
 -0.06122720829243332    8    4    7    3
 -0.03156189467100214    8    4    7    5
 -0.01353747466978642    8    4    8    2
 0.07184428544280431    8    4    8    4
 0.001718219645392685    8    5    6    2
 -0.00937044366465368    8    5    6    4
 0.005966430416880311    8    5    7    2
 -0.0325383895186903    8    5    7    4
 0.006507374629054453    8    5    8    1
 0.02189331701109591    8    5    8    3
 0.03579050729492991    8    5    8    5
 -1.379383989765799e-12    8    6    1    1
 0.06513527408197436    8    6    2    1
 1.378142682472673e-12    8    6    2    2
 -0.002349285259193156    8    6    3    2
 0.0004566173067777186    8    6    4    1
 -0.02234611884282341    8    6    4    3
 0.001116020893167463    8    6    5    2
 -0.03688776374016101    8    6    5    4
 0.02315640598605121    8    6    8    6
 -4.789831625902615e-12    8    7    1    1
 0.2261789297640747    8    7    2    1
 4.785513966019827e-12    8    7    2    2
 -0.008157773696723805    8    7    3    2
 0.001585580397324508    8    7    4    1
 -0.07759576228833799    8    7    4    3
 0.00387532584714833    8    7    5    2
 -0.1280908853417813    8    7    5    4
 0.03290673838958138    8    7    8    6
 0.127946861866027    8    7    8    7
 0.6165000159770913    8    8    1    1
 0.6165268385222896    8    8    2    2
 -0.004250398654576276    8    8    3    1
 0.5299442534930797    8    8    3    3
 0.004744045827979935    8    8    4    2
 0.4787482957941444    8    8    4    4
 -0.002688833973457687    8    8    5    1
 -0.02573492782015307    8    8    5    3
 0.480889731572178    8    8    5    5
 0.4745778243235397    8    8    6    6
 0.009503795051578645    8    8    7    6
 0.5048423556865175    8    8    7    7
 0.4792788512098695    8    8    8    8
 0.01121055320758524    9    1    6    2
 -0.01018881819767261    9    1    6    4
 -0.003228428291478291    9    1    7    2
 0.002934187842205558    9    1    7    4
 0.01151040426611833    9    1    9    1
 0.01166612952859607    9    2    6    1
 0.01502547305751202    9    2    6    3
 0.004263708994613513    9    2    6    5
 -0.003359625695963541    9    2    7    1
 -0.004327053394554597    9    2    7    3
 -0.00122786792854496    9    2    7    5
 0.01188718588871383    9    2    9    2
 0.009569609164498389    9    3    6    2
 -0.03233097860944544    9    3    6    4
 -0.002755867296910257    9    3    7    2
 0.009310713227183944    9    3    7    4
 0.009658482625283828    9    3    9    1
 0.0315811640700842    9    3    9    3
 -0.01331839648682204    9    4    6    1
 -0.0612272082924334    9    4    6    3
 -0.03156189467100218    9    4    6    5
 0.00383544747694419    9    4    7    1
 0.01763228342074871    9    4    7    3
 0.009089231530481252    9    4    7    5
 -0.01353747466978651    9    4    9    2
 0.07184428544280451    9    4    9    4
 0.005966430416880326    9    5    6    2
 -0.03253838951869034    9    5    6    4
 -0.001718219645392697    9    5    7    2
 0.009370443664653737    9    5    7    4
 0.006507374629054498    9    5    9    1
 0.02189331701109597    9    5    9    3
 0.03579050729493003    9    5    9    5
 -4.790539393854113e-12    9    6    1    1
 0.2261789297640754    9    6    2    1
 4.784805810629084e-12    9    6    2    2
 -0.008157773696723819    9    6    3    2
 0.001585580397324509    9    6    4    1
 -0.07759576228833821    9    6    4    3
 0.003875325847148341    9    6    5    2
 -0.1280908853417816    9    6    5    4
 0.03290673838958147    9    6    8    6
 0.1005870923049483    9    6    8    7
 0.1279468618660276    9    6    9    6
 1.379653889190918e-12    9    7    1    1
 -0.06513527408197449    9    7    2    1
 -1.377872635194966e-12    9    7    2    2
 0.002349285259193166    9    7    3    2
 -0.0004566173067777172    9    7    4    1
 0.02234611884282347    9    7    4    3
 -0.001116020893167474    9    7    5    2
 0.03688776374016112    9    7    5    4
 0.004203363575027689    9    7    8    6
 -0.03290673838958145    9    7    8    7
 -0.03290673838958154    9    7    9    6
 0.0231564059860513    9    7    9    7
 0.009503795051578836    9    8    6    6
 0.01513226568148896    9    8    7    6
 -0.009503795051578669    9    8    7    7
 0.01825049118075234    9    8    9    8
 0.6165000159770935    9    9    1    1
 0.6165268385222917    9    9    2    2
 -0.004250398654576321    9    9    3    1
 0.5299442534930813    9    9    3    3
 0.004744045827979994    9    9    4    2
 0.4787482957941456    9    9    4    4
 -0.002688833973457711    9    9    5    1
 -0.02573492782015329    9    9    5    3
 0.4808897315721795    9    9    5    5
 0.504842355686519    9    9    6    6
 -0.009503795051578869    9    9    7    6
 0.474577824323541    9    9    7    7
 0.4427778688483661    9    9    8    8
 0.4792788512098721    9    9    9    9
 -3.71088026365964e-12   10    1    1    1
 0.1176640576306694   10    1    2    1
 1.269566495097855e-12   10    1    2    2
 -0.01982728937973021   10    1    3    2
 0.01624199441781564   10    1    4    1
 -0.003734852522735238   10    1    4    3
 -0.0043823807725901   10    1    5    2
 -0.004855526241834773   10    1    5    4
 0.0007405326140649257   10    1    8    6
 0.002571461876306893   10    1    8    7
 0.002571461876306905   10    1    9    6
 -0.0007405326140649285   10    1    9    7
 0.01143349135340106   10    1   10    1
 0.1163754992658447   10    2    1    1
 1.255867324798472e-12   10    2    2    1
 0.1164635850165544   10    2    2    2
 -0.019878760740445   10    2    3    1
 0.002538812312994864   10    2    3    3
 0.01622251018134676   10    2    4    2
 0.005593434622959848   10    2    4    4
 -0.004303620753367874   10    2    5    1
 0.001597045336995347   10    2    5    3
 0.004198106602976938   10    2    5    5
 0.001315737698973714   10    2    6    6
 0.001315737698973713   10    2    7    7
 0.002129798423081845   10    2    8    8
 0.002129798423081866   10    2    9    9
 0.011450171516064   10    2   10    2
 2.701264492652063e-12   10    3    1    1
 -0.1281326311013405   10    3    2    1
 -2.723282439975567e-12   10    3    2    2
 0.004729894898893523   10    3    3    2
 -0.005619176868006634   10    3    4    1
 0.03275019275012606   10    3    4    3
 0.003490145008838139   10    3    5    2
 0.03831982544415102   10    3    5    4
 -0.01369816271028969   10    3    8    6
 -0.04756617401576099   10    3    8    7
 -0.04756617401576112   10    3    9    6
 0.01369816271028972   10    3    9    7
 -0.002554001929265667   10    3   10    1
 0.02761126209078738   10    3   10    3
 0.1376160137680153   10    4    1    1
 0.137632505077698   10    4    2    2
 -0.003414096465553753   10    4    3    1
 0.09867003899049538   10    4    3    3
 0.004610793965405469   10    4    4    2
 0.05331044275624809   10    4    4    4
 -0.003029389507427024   10    4    5    1
 -0.01733225870956447   10    4    5    3
 0.05259159692130615   10    4    5    5
 0.07922540814211725   10    4    6    6
 0.07922540814211722   10    4    7    7
 0.0596355676169527   10    4    8    8
 0.059635567616953   10    4    9    9
 0.002081987169413308   10    4   10    2
 0.0344162799021726   10    4   10    4
 0.001524809823992934   10    5    2    1
 0.002135602772344133   10    5    3    2
 8.286043819742789e-05   10    5    4    1
 -0.007036821562297444   10    5    4    3
 -0.001792429134941452   10    5    5    2
 -0.02279757409221653   10    5    5    4
 0.002740982494384708   10    5    8    6
 0.009517922444016632   10    5    8    7
 0.009517922444016631   10    5    9    6
 -0.002740982494384712   10    5    9    7
 -0.0007421586428008686   10    5   10    1
 0.0008080120425080994   10    5   10    3
 0.02341725546379361   10    5   10    5
 -0.006723116699259491   10    6    6    2
 0.01968764819896073   10    6    6    4
 -0.001806024531691064   10    6    8    1
 -0.005413904309878693   10    6    8    3
 -0.002742663157049176   10    6    8    5
 -0.006271328423235965   10    6    9    1
 -0.01879950763870893   10    6    9    3
 -0.009523758459725551   10    6    9    5
 0.01437072535912225   10    6   10    6
 -0.006723116699259493   10    7    7    2
 0.01968764819896073   10    7    7    4
 -0.006271328423235936   10    7    8    1
 -0.01879950763870887   10    7    8    3
 -0.009523758459725525   10    7    8    5
 0.001806024531691069   10    7    9    1
 0.0054139043098787   10    7    9    3
 0.002742663157049194   10    7    9    5
 0.01437072535912225   10    7   10    7
 -0.002017682176741889   10    8    6    1
 -0.008977167549653147   10    8    6    3
 -0.001455330517644214   10    8    6    5
 -0.007006298841472471   10    8    7    1
 -0.03117275819148253   10    8    7    3
 -0.005053561278018153   10    8    7    5
 -0.006906035409779379   10    8    8    2
 0.02120208860513547   10    8    8    4
 0.01767752030362021   10    8   10    8
 -0.0070062988414725   10    9    6    1
 -0.03117275819148264   10    9    6    3
 -0.005053561278018192   10    9    6    5
 0.002017682176741894   10    9    7    1
 0.008977167549653152   10    9    7    3
 0.001455330517644223   10    9    7    5
 -0.006906035409779434   10    9    9    2
 0.02120208860513562   10    9    9    4
 0.0176775203036203   10    9   10    9
 0.4147038305044914   10   10    1    1
 0.4147176262751251   10   10    2    2
 -0.002777316070517222   10   10    3    1
 0.3730356548428774   10   10    3    3
 0.003151154998650174   10   10    4    2
 0.3677518584995583   10   10    4    4
 -0.001759667818168355   10   10    5    1
 -0.009014630737565907   10   10    5    3
 0.3743085050482928   10   10    5    5
 0.3510085474232643   10   10    6    6
 0.3510085474232642   10   10    7    7
 0.3449119920886143   10   10    8    8
 0.344911992088615   10   10    9    9
 0.001728273927279677   10   10   10    2
 0.001911301228057525   10   10   10    4
 0.3492184346257745   10   10   10   10
 -0.01149734925096147   11    1    1    1
 -0.01152362220657622   11    1    2    2
 0.008440690680831734   11    1    3    1
 0.01829880330881617   11    1    3    3
 0.002843926308567286   11    1    4    2
 -0.00656920202731521   11    1    4    4
 -0.01023860268339197   11    1    5    1
 -0.01133383534592816   11    1    5    3
 -0.002379313784251128   11    1    5    5
 0.005263734987341865   11    1    6    6
 0.005263734987341864   11    1    7    7
 0.0001203075209068007   11    1    8    8
 0.0001203075209068004   11    1    9    9
 -0.002822305665556464   11    1   10    2
 0.0005253480340622286   11    1   10    4
 0.0003770038872583444   11    1   10   10
 0.008756383748006772   11    1   11    1
 -0.02276131089833891   11    2    2    1
 0.007944485159271505   11    2    3    2
 0.002460631152740335   11    2    4    1
 0.0032274604872121   11    2    4    3
 -0.00940700884513195   11    2    5    2
 0.01237675768180408   11    2    5    4
 -0.001188539616264477   11    2    8    6
 -0.004127143428468341   11    2    8    7
 -0.004127143428468351   11    2    9    6
 0.001188539616264484   11    2    9    7
 -0.0027679491011728   11    2   10    1
 -0.0007753308654589728   11    2   10    3
 0.001795185606983312   11    2   10    5
 0.008172548088690879   11    2   11    2
 0.1043185506312294   11    3    1    1
 0.1042861953429418   11    3    2    2
 0.002677018922989476   11    3    3    1
 0.08946677279012329   11    3    3    3
 0.0070330719900937   11    3    4    2
 0.02313434633492688   11    3    4    4
 -0.01070856016570641   11    3    5    1
 -0.04063269623118127   11    3    5    3
 0.04553816484580511   11    3    5    5
 0.03329925556251075   11    3    6    6
 0.03329925556251073   11    3    7    7
 0.02272569696866002   11    3    8    8
 0.02272569696866019   11    3    9    9
 0.0006711049837098756   11    3   10    2
 0.005866700164178632   11    3   10    4
 0.01812195214723456   11    3   10   10
 0.006933326219352078   11    3   11    1
 0.03945280413222152   11    3   11    3
 0.03039329706296719   11    4    2    1
 -0.002425500749061995   11    4    3    2
 0.0003586086577567368   11    4    4    1
 -0.002109000425970554   11    4    4    3
 0.001405029772068319   11    4    5    2
 0.006890929263969769   11    4    5    4
 0.001243101787992624   11    4    8    6
 0.004316607797521925   11    4    8    7
 0.004316607797521959   11    4    9    6
 -0.001243101787992629   11    4    9    7
 0.0008508439846541645   11    4   10    1
 -0.007123728647975657   11    4   10    3
 -0.01741897884728511   11    4   10    5
 -0.001563388810804386   11    4   11    2
 0.01568144906688613   11    4   11    4
 -0.1646342902812356   11    5    1    1
 -0.1646226988217333   11    5    2    2
 0.0004778259286051251   11    5    3    1
 -0.13029907594295   11    5    3    3
 -0.006385147395600061   11    5    4    2
 -0.04941395079892082   11    5    4    4
 0.007462548097399543   11    5    5    1
 0.03937614756681114   11    5    5    3
 -0.06282514318498365   11    5    5    5
 -0.08313809230160187   11    5    6    6
 -0.08313809230160184   11    5    7    7
 -0.0571156299119013   11    5    8    8
 -0.05711562991190162   11    5    9    9
 -0.001496257679743808   11    5   10    2
 -0.03445957687120655   11    5   10    4
 -0.003027877865596297   11    5   10   10
 -0.003939356012106373   11    5   11    1
 -0.02367622201536292   11    5   11    3
 0.04682904010728429   11    5   11    5
 -0.00232907250019043   11    6    6    1
 -0.02449391987732298   11    6    6    3
 -0.01002332553059422   11    6    6    5
 -0.0006498053271114715   11    6    8    2
 0.005584795460481795   11    6    8    4
 -0.002256415982161978   11    6    9    2
 0.01939291847629776   11    6    9    4
 0.002999758229559418   11    6   10    8
 0.01041650803616543   11    6   10    9
 0.01983370861685887   11    6   11    6
 -0.00232907250019043   11    7    7    1
 -0.02449391987732298   11    7    7    3
 -0.01002332553059422   11    7    7    5
 -0.002256415982161968   11    7    8    2
 0.01939291847629773   11    7    8    4
 0.0006498053271114742   11    7    9    2
 -0.005584795460481812   11    7    9    4
 0.01041650803616541   11    7   10    8
 -0.002999758229559419   11    7   10    9
 0.01983370861685888   11    7   11    7
 -0.0002472710561532544   11    8    6    2
 0.001418779644520591   11    8    6    4
 -0.0008586361787929192   11    8    7    2
 0.004926640228225077   11    8    7    4
 -0.001013425508278174   11    8    8    1
 -0.003816865035805449   11    8    8    3
 -0.002323853347827158   11    8    8    5
 0.001522728675031233   11    8   10    6
 0.005287597955083215   11    8   10    7
 0.007141023776187571   11    8   11    8
 -0.0008586361787929214   11    9    6    2
 0.004926640228225098   11    9    6    4
 0.000247271056153257   11    9    7    2
 -0.001418779644520595   11    9    7    4
 -0.001013425508278182   11    9    9    1
 -0.003816865035805465   11    9    9    3
 -0.002323853347827205   11    9    9    5
 0.00528759795508322   11    9   10    6
 -0.001522728675031236   11    9   10    7
 0.007141023776187565   11    9   11    9
 0.0455995731141535   11   10    2    1
 -0.002755970017611842   11   10    3    2
 -0.00376345210802142   11   10    4    1
 -0.03515188425604182   11   10    4    3
 0.006687887853827257   11   10    5    2
 -0.0879690813986245   11   10    5    4
 0.01469509422147794   11   10    8    6
 0.05102796803484913   11   10    8    7
 0.05102796803484919   11   10    9    6
 -0.01469509422147797   11   10    9    7
 0.0002915868577159803   11   10   10    1
 -0.006051379412476464   11   10   10    3
 0.0360190170958655   11   10   10    5
 -0.004161693817270697   11   10   11    2
 -0.02364283610973976   11   10   11    4
 0.08595929003199962   11   10   11   10
 0.4930885276342029   11   11    1    1
 0.4930734331659025   11   11    2    2
 0.0003684930173529014   11   11    3    1
 0.4688973762007456   11   11    3    3
 0.005934118509180754   11   11    4    2
 0.3962699046026568   11   11    4    4
 -0.007554577593199779   11   11    5    1
 -0.03801399817835512   11   11    5    3
 0.4120718516428096   11   11    5    5
 0.4163095415113149   11   11    6    6
 0.4163095415113149   11   11    7    7
 0.3848985051767803   11   11    8    8
 0.3848985051767811   11   11    9    9
 0.00119514824512319   11   11   10    2
 0.02756182601116421   11   11   10    4
 0.3378918871272031   11   11   10   10
 0.004312888442305613   11   11   11    1
 0.02550214704275522   11   11   11    3
 -0.03704185758877956   11   11   11    5
 0.3715422440492026   11   11   11   11
 -0.002602684576406772   12    1    6    1
 -0.003176726976233485   12    1    6    3
 -0.0007408426014233909   12    1    6    5
 0.01458093695506402   12    1    7    1
 0.01779687641898576   12    1    7    3
 0.004150398923827119   12    1    7    5
 0.01299100747349356   12    1    8    2
 -0.01318393544044869   12    1    8    4
 -0.006388443171229668   12    1    9    2
 0.006483317210487076   12    1    9    4
 -0.007046580578020471   12    1   10    8
 0.003465218511037343   12    1   10    9
 0.0004006410657053133   12    1   11    6
 -0.002244498689397026   12    1   11    7
 0.01774819422371135   12    1   12    1
 -0.002497426927175614   12    2    6    2
 0.002005220812847968   12    2    6    4
 0.01399125537728458   12    2    7    2
 -0.01123378473064301   12    2    7    4
 0.0125616254754545   12    2    8    1
 0.009673756866523773   12    2    8    3
 0.005873804033521684   12    2    8    5
 -0.006177290764550007   12    2    9    1
 -0.004757155757178578   12    2    9    3
 -0.002888495241316464   12    2    9    5
 0.001286754162056197   12    2   10    6
 -0.007208741882779453   12    2   10    7
 -0.0008149481515271508   12    2   11    8
 0.0004007579831011951   12    2   11    9
 0.01714048793505104   12    2   12    2
 -0.001722062992962453   12    3    6    1
 -0.006858265662130013   12    3    6    3
 0.0006642517713701658   12    3    6    5
 0.009647458689634953   12    3    7    1
 0.03842184341010555   12    3    7    3
 -0.003721316554620496   12    3    7    5
 0.008043662549975216   12    3    8    2
 -0.01573579115984813   12    3    8    4
 -0.003955542416083766   12    3    9    2
 0.007738214898585842   12    3    9    4
 -0.01269229912248691   12    3   10    8
 0.006241550689713407   12    3   10    9
 -0.0002788720699332949   12    3   11    6
 0.001562316120472558   12    3   11    7
 0.01068838574628747   12    3   12    1
 0.02782302025696941   12    3   12    3
 0.001071942648574999   12    4    6    2
 -0.001652266231492129   12    4    6    4
 -0.006005310178575261   12    4    7    2
 0.009256438514585017   12    4    7    4
 -0.005431909422716465   12    4    8    1
 -0.008001695516600391   12    4    8    3
 -0.002701593975045369   12    4    8    5
 0.002671189646306861   12    4    9    1
 0.003934904755122732   12    4    9    3
 0.001328532803674268   12    4    9    5
 -0.001457983932717952   12    4   10    6
 0.0081680169764583   12    4   10    7
 0.003011248137128473   12    4   11    8
 -0.001480807984890108   12    4   11    9
 -0.00675739763172183   12    4   12    2
 0.01209544821724991   12    4   12    4
 3.965191614881229e-05   12    5    6    1
 0.003064964514811025   12    5    6    3
 -0.0004043834008072455   12    5    6    5
 -0.0002221406676607273   12    5    7    1
 -0.01717075313892482   12    5    7    3
 0.002265464254214478   12    5    7    5
 0.0002150339588521721   12    5    8    2
 0.006868723837776086   12    5    8    4
 -0.0001057448568800009   12    5    9    2
 -0.00337775588121516   12    5    9    4
 0.000153805218981569   12    5   10    8
 -7.563508087478273e-05   12    5   10    9
 -0.0003839981909751497   12    5   11    6
 0.002151260842063781   12    5   11    7
 -0.0001354698255962705   12    5   12    1
 -0.003727858435600712   12    5   12    3
 0.01192413618642003   12    5   12    5
 -0.04164793719318862   12    6    1    1
 -0.04165056437273795   12    6    2    2
 0.0005286495785321126   12    6    3    1
 -0.02806549446893479   12    6    3    3
 -0.00132010597514782   12    6    4    2
 -0.01591195083280202   12    6    4    4
 0.001232977131481786   12    6    5    1
 0.006429958731402279   12    6    5    3
 -0.01798649052558022   12    6    5    5
 -0.01998466403176016   12    6    6    6
 0.003793277340205333   12    6    7    6
 -0.01863047061362636   12    6    7    7
 -0.01369358149009497   12    6    8    8
 0.001499418324964018   12    6    9    8
 -0.01641767299825909   12    6    9    9
 -0.0004092167589741411   12    6   10    2
 -0.005700244692100323   12    6   10    4
 -0.007028033301469745   12    6   10   10
 -0.0005063786206466663   12    6   11    1
 -0.005638250351931918   12    6   11    3
 0.007013398275281828   12    6   11    5
 -0.009204408485081602   12    6   11   11
 0.01029711962791871   12    6   12    6
 0.2333229128213189   12    7    1    1
 0.233337630985681   12    7    2    2
 -0.002961636706104362   12    7    3    1
 0.1572304262966817   12    7    3    3
 0.007395587683624628   12    7    4    2
 0.08914301564943197   12    7    4    4
 -0.006907468536195692   12    7    5    1
 -0.03602235312573928   12    7    5    3
 0.1007651433345846   12    7    5    5
 0.1043728924829968   12    7    6    6
 -0.0006770967090669228   12    7    7    6
 0.1119594471634074   12    7    7    7
 0.08584507959190142   12    7    8    8
 -0.001362045754081986   12    7    9    8
 0.08284624294197385   12    7    9    9
 0.002292542022819861   12    7   10    2
 0.03193429939124632   12    7   10    4
 0.03937292725202234   12    7   10   10
 0.002836868827660564   12    7   11    1
 0.03158699047269337   12    7   11    3
 -0.03929093791066309   12    7   11    5
 0.05156556466589483   12    7   11   11
 -0.01179109989317039   12    7   12    6
 0.074249322146015   12    7   12    7
 -2.723853048442495e-12   12    8    1    1
 0.127751446762964   12    8    2    1
 2.684505433707378e-12   12    8    2    2
 -0.005553995717171447   12    8    3    2
 0.004326085855129324   12    8    4    1
 -0.02070152078541404   12    8    4    3
 -0.001268996142388824   12    8    5    2
 -0.02220924843966381   12    8    5    4
 0.007722031409019854   12    8    8    6
 0.03072320650056042   12    8    8    7
 0.02589696324771608   12    8    9    6
 -0.008583511635899464   12    8    9    7
 0.002436667593316964   12    8   10    1
 -0.02068919316386853   12    8   10    3
 -0.007780178997474587   12    8   10    5
 -0.0008407273965956789   12    8   11    2
 0.0100828926678574   12    8   11    4
 -0.01083578944580523   12    8   11   10
 0.03761542948983962   12    8   12    8
 1.339902592205899e-12   12    9    1    1
 -0.06282290725740707   12    9    2    1
 -1.319744728906488e-12   12    9    2    2
 0.002731226664659981   12    9    3    2
 -0.002127391096937144   12    9    4    1
 0.01018015649405849   12    9    4    3
 0.0006240401105689223   12    9    5    2
 0.01092159494342583   12    9    5    4
 -0.001596076094810891   12    9    8    6
 -0.01349099526852629   12    9    8    7
 -0.01435247549540597   12    9    9    6
 0.006422319347655452   12    9    9    7
 -0.00119825290523801   12    9   10    1
 0.01017409427680239   12    9   10    3
 0.003825972041719884   12    9   10    5
 0.0004134351555571106   12    9   11    2
 -0.004958351917019771   12    9   11    4
 0.005328595586691731   12    9   11   10
 -0.01528606949816602   12    9   12    8
 0.01404800834667082   12    9   12    9
 0.0009325004824314998   12   10    6    2
 -0.00244469673167562   12   10    6    4
 -0.00522411776984206   12   10    7    2
 0.01369584668151589   12   10    7    4
 -0.004630147392865874   12   10    8    1
 -0.01145375928649059   12   10    8    3
 -0.009210047923307735   12   10    8    5
 0.002276916055517155   12   10    9    1
 0.005632487737997704   12   10    9    3
 0.004529122770686105   12   10    9    5
 -0.001023712912924017   12   10   10    6